DOI,Core composition,Shell composition,Area/volume,Max/min(size),Magnetic moment of core,Spin of surface elements,Saturation magnetization,LogP of organic coating,Number H acceptors of organic coating,Field strength,r1 relaxivity
https://doi.org/10.1021/nn305991e,Gd0.15Fe0.85Fe2O4,,1.071,0.000,2.457,1.032,8.000,0.000,0.000,7.000,3.050
https://doi.org/10.1021/nn305991e,Gd0.195Fe0.81Fe2O4,,0.856,0.000,2.478,1.042,20.000,0.000,0.000,7.000,4.630
https://doi.org/10.1021/nn305991e,Gd0.21Fe0.79Fe2O4,,0.625,0.000,2.483,1.045,24.000,0.000,0.000,7.000,7.850
10.1039/c4nr02680b,Mn0.51Fe0.49Fe2O4,,0.600,0.000,2.466,1.036,39.700,0.000,0.000,0.500,18.000
10.1039/c4nr02680b,Mn0.51Fe0.49Fe2O4,,0.428,0.000,2.466,1.036,52.100,0.000,0.000,0.500,27.200
10.1039/c4nr02680b,Mn0.51Fe0.49Fe2O4,,0.333,0.000,2.466,1.036,60.300,0.000,0.000,0.500,32.100
10.1039/c4nr02680b,Mn0.51Fe0.49Fe2O4,,0.250,0.000,2.466,1.036,71.000,0.000,0.000,0.500,38.200
10.1039/c4nr02680b,Fe1Fe2O4,,0.250,0.000,2.391,1.000,53.000,0.000,0.000,0.500,14.200
https://doi.org/10.1002/adfm.201103123,Fe1Fe2O4,,0.908,0.000,2.391,1.000,15.000,0.000,0.000,4.700,8.300
10.1039/c6nr02620f,Fe1Fe2O4,Gd2O3,0.652,0.000,2.391,1.000,25.000,0.000,0.000,1.500,45.240
https://doi.org/10.1039/C5NR00055F,Fe1Fe2O4,PEI,0.567,1.000,2.391,1.000,50.000,-1.096,2.000,3.000,16.033
https://doi.org/10.1039/C5NR00055F,Fe1Fe2O4,PEI,0.500,0.000,2.391,1.000,63.000,-1.096,2.000,3.000,11.233