DOI,Core composition,Shell composition,Area/volume,Max/min(size),Magnetic moment of core,Spin of surface elements,Saturation magnetization,LogP of organic coating,Number H acceptors of organic coating,Field strength,r1 relaxivity
https://doi.org/10.1016/j.mri.2022.09.009,Fe1Fe2O4,,0.353,0.000,2.391,1.000,54.820,0.000,0.000,0.300,16.850
https://doi.org/10.1016/j.mri.2022.09.009,Fe1Fe2O4,PVA,0.438,0.000,2.391,1.000,39.620,0.693,2.000,0.300,19.090
https://doi.org/10.1186/s12951-022-01562-y,Fe1Fe2O4,PASP,0.375,0.000,2.391,1.000,65.910,-1.127,3.000,3.000,5.400
https://doi.org/10.1186/s12951-022-01562-y,Fe1Fe2O4,PASP,1.153,0.000,2.391,1.000,34.727,-1.127,3.000,3.000,3.500
https://doi.org/10.1186/s12951-022-01562-y,Fe1Fe2O4,PASP,0.810,0.000,2.391,1.000,16.000,-1.127,3.000,3.000,7.000
https://doi.org/10.1186/s12951-022-01562-y,Fe1Fe2O4,PASP,0.810,0.000,2.391,1.000,16.000,-1.127,3.000,7.000,0.900
https://doi.org/10.1186/s12951-022-01562-y,Fe1Fe2O4,PASP,0.625,0.000,2.391,1.000,29.000,-1.127,3.000,3.000,6.000
https://doi.org/10.3390/nano12193304,Fe2O3,,0.384,0.000,2.368,1.000,69.300,0.000,0.000,1.500,12.000
https://doi.org/10.3390/nano12193304,Zn0.26Mn0.23Fe1.51O3,,0.389,0.000,2.060,0.870,91.500,0.000,0.000,1.500,24.000
https://doi.org/10.3390/nano12193304,Fe2O3,,0.193,0.000,2.368,1.000,82.900,0.000,0.000,1.500,12.000
https://doi.org/10.3390/nano12193304,Zn0.24Fe1.76O3,,0.224,0.000,2.084,0.880,97.200,0.000,0.000,1.500,22.000
https://doi.org/10.1155/2022/5066167,Ni1Fe2O4,,0.100,0.000,2.096,0.929,46.700,0.000,0.000,0.350,7.710
https://doi.org/10.1016/j.ceramint.2021.08.308,Mn1Fe2O4,sodium citrate,0.638,0.000,2.537,1.071,35.700,-5.253,7.000,7.000,4.273
https://doi.org/10.1039/D1NR03335B,Fe1Fe2O4,,0.167,0.000,2.391,1.000,64.000,0.000,0.000,1.410,12.000
https://doi.org/10.1039/D1NR03335B,Fe1Fe2O4,,0.136,0.000,2.391,1.000,88.000,0.000,0.000,1.410,10.000
https://doi.org/10.1039/D1NR03335B,Fe1Fe2O4,,0.167,0.000,2.391,1.000,104.000,0.000,0.000,1.410,17.000
https://doi.org/10.1039/D1NR03335B,Fe1Fe2O4,,0.107,0.000,2.391,1.000,89.000,0.000,0.000,1.410,8.000
https://doi.org/10.1021/acsomega.0c05382,Mn1Fe2O4,PEG,0.049,0.000,2.537,1.071,37.730,-1.029,2.000,7.000,3.567
https://doi.org/10.2147/IJN.S322894,Fe1Fe2O4,Au,0.120,0.000,2.391,1.000,51.000,0.000,0.000,3.000,21.967
https://doi.org/10.1016/j.jcis.2020.06.011,Fe1Fe2O4,DMSA,0.428,0.000,2.391,1.000,76.000,-0.248,4.000,1.500,22.100
https://doi.org/10.1016/j.jcis.2020.06.011,Mn0.1Fe0.9Fe2O4,DMSA,0.428,0.000,2.406,1.007,65.000,-0.248,4.000,1.500,17.200
https://doi.org/10.1016/j.jcis.2020.06.011,Mn0.13Fe0.87Fe2O4,DMSA,0.428,0.000,2.410,1.009,60.000,-0.248,4.000,1.500,16.500
https://doi.org/10.1016/j.jcis.2020.06.011,Mn0.19Fe0.81Fe2O4,DMSA,0.428,0.000,2.419,1.014,72.000,-0.248,4.000,1.500,16.500
https://doi.org/10.1016/j.jcis.2020.06.011,Mn0.23Fe0.77Fe2O4,DMSA,0.428,0.000,2.425,1.016,69.000,-0.248,4.000,1.500,15.200
https://doi.org/10.1016/j.jcis.2020.06.011,Mn0.3Fe0.7Fe2O4,DMSA,0.428,0.000,2.435,1.021,62.000,-0.248,4.000,1.500,17.200
https://doi.org/10.1016/j.jcis.2020.06.011,Mn0.5Fe0.5Fe2O4,DMSA,0.428,0.000,2.464,1.036,51.000,-0.248,4.000,1.500,8.300
10.1016/j.jmmm.2009.07.057,Mn1Fe2O4,DMSA,0.394,0.000,2.537,1.071,53.100,-0.248,4.000,9.400,18.600
10.1016/j.jmmm.2009.07.057,Fe1Fe2O4,DMSA,0.500,0.000,2.391,1.000,50.300,-0.248,4.000,9.400,11.100
10.1016/j.jmmm.2009.07.057,Co1Fe2O4,DMSA,0.375,0.000,2.246,1.000,65.300,-0.248,4.000,9.400,6.300
https://doi.org/10.1039/C4DT00162A,Mn1Fe2O4,CTAB,0.349,0.000,2.537,1.071,54.600,3.178,0.000,9.400,8.080
https://doi.org/10.1039/C4DT00162A,Mn1Fe2O4,CTAB,0.366,0.000,2.537,1.071,65.700,3.178,0.000,9.400,6.903
https://doi.org/10.1021/jp510937r,Mn1Fe2O4,citric acid,0.167,0.000,2.537,1.071,76.200,-1.248,4.000,1.500,19.000
https://doi.org/10.1039/C4NR05781C,Mn1Fe2O4,Gallol-PEG,0.500,0.000,2.537,1.071,50.500,0.803,3.000,1.500,13.300
https://doi.org/10.1039/C4NR05781C,Mn1Fe2O4,Gallol-PEG,0.500,0.000,2.537,1.071,50.500,0.803,3.000,9.400,0.800
https://doi.org/10.1039/C4NR05781C,Mn1Fe2O4,Gallol-PEG,0.400,0.000,2.537,1.071,59.000,0.803,3.000,1.500,18.600
https://doi.org/10.1039/C4NR05781C,Mn1Fe2O4,Gallol-PEG,0.400,0.000,2.537,1.071,59.000,0.803,3.000,9.400,1.300
https://doi.org/10.1039/C4NR05781C,Mn1Fe2O4,Gallol-PEG,0.333,0.000,2.537,1.071,73.000,0.803,3.000,1.500,12.300
https://doi.org/10.1039/C4NR05781C,Mn1Fe2O4,Gallol-PEG,0.333,0.000,2.537,1.071,73.000,0.803,3.000,9.400,0.900
https://doi.org/10.1039/C4NR05781C,Mn1Fe2O4,Gallol-PEG,0.250,0.000,2.537,1.071,91.000,0.803,3.000,1.500,7.400
https://doi.org/10.1039/C4NR05781C,Mn1Fe2O4,Gallol-PEG,0.250,0.000,2.537,1.071,91.000,0.803,3.000,9.400,2.300
https://doi.org/10.1039/C4NR05781C,Mn1Fe2O4,Gallol-PEG,0.214,0.000,2.537,1.071,106.000,0.803,3.000,1.500,14.400
https://doi.org/10.1039/C4NR05781C,Mn1Fe2O4,Gallol-PEG,0.214,0.000,2.537,1.071,106.000,0.803,3.000,9.400,1.300
https://doi.org/10.1039/C4DT02425G,Co1Fe2O4,CTAB,0.111,0.000,2.246,1.000,22.000,3.178,0.000,1.500,9.283
10.1021/acsnano.6b07684,Mn1Fe2O4,phosphorylated PEG,1.499,0.000,2.537,1.071,18.590,-0.929,1.000,3.000,8.430
10.1021/acsnano.6b07684,Mn1Fe2O4,phosphorylated PEG,0.999,0.000,2.537,1.071,24.910,-0.929,1.000,3.000,8.230
10.1021/acsnano.6b07684,Mn1Fe2O4,phosphorylated PEG,0.769,0.000,2.537,1.071,29.180,-0.929,1.000,3.000,6.980
10.1021/acsnano.6b07684,Fe1Fe2O4,phosphorylated PEG,0.999,0.000,2.391,1.000,31.000,-0.929,1.000,3.000,4.960
10.1021/acsnano.6b07684,Mn1Fe2O4,phosphorylated PEG,0.500,0.000,2.537,1.071,50.000,-0.929,1.000,3.000,1.390
10.1039/C7RA05495E,Mn1Fe2O4,PEG,0.468,0.000,2.537,1.071,33.700,-1.029,2.000,9.400,0.690
10.1039/C7RA05495E,Fe1Fe2O4,PEG,0.300,0.000,2.391,1.000,34.400,-1.029,2.000,9.400,0.800
10.1039/C7RA05495E,Co1Fe2O4,PEG,0.500,0.000,2.246,1.000,33.300,-1.029,2.000,9.400,0.450
10.1039/C7RA05495E,Ni1Fe2O4,PEG,0.483,0.000,2.096,0.929,28.400,-1.029,2.000,9.400,0.780
10.1039/C7RA05495E,Cu1Fe2O4,PEG,0.345,0.000,1.939,0.786,23.200,-1.029,2.000,9.400,1.210
10.1002/adma.201906799,Mn1Fe2O4,Cys-Arg-Glu-Lys-Ala,0.731,0.000,2.537,1.071,19.100,-3.665,10.000,7.000,6.790
10.1002/adma.201906799,Mn1Fe2O4,DHCA,0.769,0.000,2.537,1.071,20.800,1.115,3.000,7.000,6.710
10.1088/2053-1591/ab66a4,Fe1Mn2O4,CTAB,0.312,0.000,2.537,1.071,59.000,3.178,0.000,1.500,12.967
10.1088/0022-3727/41/13/134021,Mn1.12Fe1.88O4,,0.983,0.000,2.537,1.071,44.000,0.000,0.000,1.500,1.500
10.1088/0022-3727/41/13/134021,Mn1.12Fe1.88O4,,0.983,0.000,2.537,1.071,44.000,0.000,0.000,3.000,2.600
10.1088/0022-3727/41/13/134021,Mn1.13Fe1.87O4,,0.643,0.000,2.537,1.071,43.200,0.000,0.000,3.000,1.500
10.1088/0022-3727/41/13/134021,Mn1.13Fe1.87O4,,0.643,0.000,2.537,1.071,43.200,0.000,0.000,0.200,1.700
10.1088/0022-3727/41/13/134021,Mn1.13Fe1.87O4,,0.643,0.000,2.537,1.071,43.200,0.000,0.000,1.500,3.200
10.1088/0022-3727/41/13/134021,Mn1.09Fe1.91O4,,0.502,0.000,2.537,1.071,42.000,0.000,0.000,3.000,0.700
10.1088/0022-3727/41/13/134021,Mn1.09Fe1.91O4,,0.502,0.000,2.537,1.071,42.000,0.000,0.000,0.200,1.300
10.1088/0022-3727/41/13/134021,Mn1.09Fe1.91O4,,0.502,0.000,2.537,1.071,42.000,0.000,0.000,1.500,2.300
10.1088/0022-3727/41/13/134021,Mn1.12Fe1.88O4,,0.621,0.000,2.537,1.071,44.000,0.000,0.000,3.000,0.800
10.1088/0022-3727/41/13/134021,Mn1.12Fe1.88O4,,0.621,0.000,2.537,1.071,44.000,0.000,0.000,0.200,1.200
10.1088/0022-3727/41/13/134021,Mn1.12Fe1.88O4,,0.621,0.000,2.537,1.071,44.000,0.000,0.000,1.500,3.000
10.1073/pnas.0902365106,Mn1Fe2O4,DMSA,0.300,0.000,2.537,1.071,80.900,-0.248,4.000,0.500,6.540
10.1039/C5DT00212E,Mn0.35Fe0.65Fe2O4,PG,0.500,0.000,2.442,1.025,80.300,-0.641,2.000,9.000,7.303
10.1021/acs.chemmater.7b00035,Fe1Fe2O4,sodium citrate,0.167,0.000,2.391,1.000,50.800,-5.253,7.000,0.500,19.400
10.1021/acs.chemmater.7b00035,Fe1Fe2O4,sodium citrate,0.167,0.000,2.391,1.000,50.800,-5.253,7.000,7.000,1.460
10.1021/acs.chemmater.7b00035,Mn0.09Fe0.91Fe2O4,sodium citrate,0.168,0.000,2.405,1.006,60.100,-5.253,7.000,0.500,26.800
10.1021/acs.chemmater.7b00035,Mn0.09Fe0.91Fe2O4,sodium citrate,0.168,0.000,2.405,1.006,60.100,-5.253,7.000,7.000,1.210
10.1021/acs.chemmater.7b00035,Mn0.19Fe0.81Fe2O4,sodium citrate,0.165,0.000,2.419,1.014,67.700,-5.253,7.000,0.500,45.100
10.1021/acs.chemmater.7b00035,Mn0.19Fe0.81Fe2O4,sodium citrate,0.165,0.000,2.419,1.014,67.700,-5.253,7.000,7.000,0.900
10.1021/acs.chemmater.7b00035,Mn0.31Fe0.69Fe2O4,sodium citrate,0.167,0.000,2.437,1.022,73.300,-5.253,7.000,0.500,60.100
10.1021/acs.chemmater.7b00035,Mn0.31Fe0.69Fe2O4,sodium citrate,0.167,0.000,2.437,1.022,73.300,-5.253,7.000,7.000,0.730
10.1021/acs.chemmater.7b00035,Mn0.39Fe0.61Fe2O4,sodium citrate,0.162,0.000,2.448,1.028,83.900,-5.253,7.000,0.500,70.300
10.1021/acs.chemmater.7b00035,Mn0.39Fe0.61Fe2O4,sodium citrate,0.162,0.000,2.448,1.028,83.900,-5.253,7.000,7.000,0.560
10.1021/acs.chemmater.7b00035,Mn0.43Fe0.57Fe2O4,sodium citrate,0.167,0.000,2.454,1.031,89.500,-5.253,7.000,0.500,76.500
10.1021/acs.chemmater.7b00035,Mn0.43Fe0.57Fe2O4,sodium citrate,0.167,0.000,2.454,1.031,89.500,-5.253,7.000,7.000,0.500
10.1021/acs.chemmater.7b00035,Mn0.47Fe0.53Fe2O4,sodium citrate,0.168,0.000,2.460,1.034,75.600,-5.253,7.000,0.500,64.200
10.1021/acs.chemmater.7b00035,Mn0.47Fe0.53Fe2O4,sodium citrate,0.168,0.000,2.460,1.034,75.600,-5.253,7.000,7.000,0.760
10.1021/acs.chemmater.7b00035,Mn0.53Fe0.47Fe2O4,sodium citrate,0.168,0.000,2.469,1.038,69.900,-5.253,7.000,0.500,55.500
10.1021/acs.chemmater.7b00035,Mn0.53Fe0.47Fe2O4,sodium citrate,0.168,0.000,2.469,1.038,69.900,-5.253,7.000,7.000,0.870
10.1021/acs.chemmater.7b00035,Mn0.61Fe0.39Fe2O4,sodium citrate,0.168,0.000,2.480,1.044,60.900,-5.253,7.000,0.500,32.400
10.1021/acs.chemmater.7b00035,Mn0.61Fe0.39Fe2O4,sodium citrate,0.168,0.000,2.480,1.044,60.900,-5.253,7.000,7.000,1.190
10.1021/acs.chemmater.7b00035,Mn0.79Fe0.21Fe2O4,sodium citrate,0.162,0.000,2.507,1.056,44.000,-5.253,7.000,0.500,17.000
10.1021/acs.chemmater.7b00035,Mn0.79Fe0.21Fe2O4,sodium citrate,0.162,0.000,2.507,1.056,44.000,-5.253,7.000,7.000,1.730
10.1021/acs.chemmater.7b00035,Mn0.92Fe0.08Fe2O4,sodium citrate,0.162,0.000,2.525,1.066,35.200,-5.253,7.000,0.500,13.700
10.1021/acs.chemmater.7b00035,Mn0.92Fe0.08Fe2O4,sodium citrate,0.162,0.000,2.525,1.066,35.200,-5.253,7.000,7.000,1.900
10.1021/acs.chemmater.7b00035,Mn1.06Fe1.94O4,sodium citrate,0.162,0.000,2.537,1.071,21.100,-5.253,7.000,0.500,9.400
10.1021/acs.chemmater.7b00035,Mn1.06Fe1.94O4,sodium citrate,0.162,0.000,2.537,1.071,21.100,-5.253,7.000,7.000,2.190
https://doi.org/10.1021/acs.chemmater.9b04848,Co1.07Fe1.93O4,dodecylamine-modified poly(isobutylene-alt-maleic anhydride) polymer,0.411,0.000,2.225,0.995,73.000,1.208,3.000,3.000,11.700
https://doi.org/10.1021/acs.chemmater.9b04848,Co0.29Mn0.93Fe1.78O4,dodecylamine-modified poly(isobutylene-alt-maleic anhydride) polymer,0.316,0.000,2.453,1.051,75.000,1.208,3.000,3.000,6.540
https://doi.org/10.1021/acs.chemmater.9b04848,Zn0.15Mn0.55Fe0.3Fe2O4,dodecylamine-modified poly(isobutylene-alt-maleic anhydride) polymer,0.353,0.000,2.367,0.996,82.000,1.208,3.000,3.000,6.057
https://doi.org/10.1021/acs.chemmater.9b04848,Zn0.14Co0.5Mn0.27Fe0.09Fe2O4,dodecylamine-modified poly(isobutylene-alt-maleic anhydride) polymer,0.349,0.000,2.260,0.979,99.000,1.208,3.000,3.000,6.230
10.1039/C6RA14265F,Zn0.5Mn0.5Fe2O4,Fe1Fe2O4,0.244,0.000,2.114,0.893,53.130,0.000,0.000,1.500,13.773
10.1039/C6RA14265F,Zn0.5Mn0.5Fe2O4,Fe1Fe2O4,0.300,0.000,2.114,0.893,49.210,0.000,0.000,1.500,13.773
https://doi.org/10.3390/nano10050907,Co1Fe2O4,Mn1Fe2O4,0.268,0.000,2.246,1.000,64.200,0.000,0.000,9.400,4.697
https://doi.org/10.1021/acsami.9b20496,Co0.33Fe0.67Fe2O4,PMA-dodecylamine,0.147,0.000,2.343,1.000,81.300,3.866,1.000,9.400,10.267
https://doi.org/10.1021/acsami.9b20496,Zn0.21Fe0.79Fe2O4,PMA-dodecylamine,0.153,0.000,2.244,0.940,131.800,3.866,1.000,9.400,6.540
https://doi.org/10.1021/acsami.9b20496,Zn0.43Fe0.57Fe2O4,PMA-dodecylamine,0.149,0.000,2.090,0.877,130.800,3.866,1.000,9.400,6.540
https://doi.org/10.1021/acsami.9b20496,Co0.72Fe0.28Fe2O4,PMA-dodecylamine,0.199,0.000,2.287,1.000,92.200,3.866,1.000,9.400,10.267
https://doi.org/10.1186/s12951-020-0580-1,Fe1Fe2O4,,0.517,0.000,2.391,1.000,52.800,0.000,0.000,3.000,4.620
https://doi.org/10.1186/s12951-020-0580-1,Fe1Fe2O4,,1.199,0.000,2.391,1.000,28.500,0.000,0.000,3.000,5.590
https://doi.org/10.1186/s12951-020-0580-1,Fe1Fe2O4,,0.179,0.000,2.391,1.000,61.100,0.000,0.000,3.000,3.250
https://doi.org/10.1186/s12951-020-0580-1,Fe1Fe2O4,,0.389,0.000,2.391,1.000,27.200,0.000,0.000,3.000,4.510
https://doi.org/10.1186/s12951-020-0580-1,Fe1Fe2O4,,0.283,0.000,2.391,1.000,73.800,0.000,0.000,3.000,4.870
https://doi.org/10.1186/s12951-020-0580-1,Fe1Fe2O4,,0.229,0.000,2.391,1.000,83.200,0.000,0.000,3.000,5.110
https://doi.org/10.1186/s12951-020-0580-1,Fe1Fe2O4,,0.192,0.000,2.391,1.000,62.200,0.000,0.000,3.000,4.740
https://doi.org/10.1186/s12951-020-0580-1,Fe1Fe2O4,,0.174,0.000,2.391,1.000,70.400,0.000,0.000,3.000,4.110
https://doi.org/10.1021/acs.chemmater.9b01582,Zn0.1Fe0.9Fe2O4,,0.428,0.000,2.321,0.971,62.500,0.000,0.000,1.500,20.500
https://doi.org/10.1021/acs.chemmater.9b01582,Zn0.2Fe0.8Fe2O4,,0.428,0.000,2.251,0.943,66.800,0.000,0.000,1.500,28.000
https://doi.org/10.1021/acs.chemmater.9b01582,Zn0.3Fe0.7Fe2O4,,0.428,0.000,2.181,0.914,48.400,0.000,0.000,1.500,21.600
https://doi.org/10.1021/acs.chemmater.9b01582,Zn0.4Fe0.6Fe2O4,,0.428,0.000,2.111,0.886,44.900,0.000,0.000,1.500,16.800
https://doi.org/10.1021/acs.chemmater.9b01582,Zn0.2Fe0.8Fe2O4,,0.749,0.000,2.251,0.943,38.700,0.000,0.000,1.500,24.200
https://doi.org/10.1021/acs.chemmater.9b01582,Zn0.2Fe0.8Fe2O4,,0.300,0.000,2.251,0.943,123.800,0.000,0.000,1.500,12.200
DOI	https://doi.org/10.1039/C8DT04685A,Fe1Fe2O4,oleate acid,0.291,0.000,2.391,1.000,73.000,6.109,1.000,1.400,20.500
DOI	https://doi.org/10.1039/C8DT04685A,Fe1Fe2O4,oleate acid,0.291,0.000,2.391,1.000,73.000,6.109,1.000,3.000,5.800
https://doi.org/10.1155/2018/3743164,Fe1Fe2O4,DSPE-PEG2000,0.115,0.000,2.391,1.000,97.000,11.609,8.000,1.500,6.540
https://doi.org/10.3390/nano7080225,Fe1Fe2O4,,0.375,0.000,2.391,1.000,65.500,0.000,0.000,3.000,7.750
https://doi.org/10.3390/nano7080225,Fe1Fe2O4,,0.204,0.000,2.391,1.000,74.000,0.000,0.000,3.000,5.930
https://doi.org/10.3390/nano7080225,Fe1Fe2O4,,0.192,0.000,2.391,1.000,77.200,0.000,0.000,3.000,6.180
https://doi.org/10.3390/nano7080225,Fe1Fe2O4,,0.316,0.000,2.391,1.000,71.100,0.000,0.000,3.000,5.510
https://doi.org/10.3390/nano7080225,Fe1Fe2O4,,0.345,0.000,2.391,1.000,69.800,0.000,0.000,3.000,5.460
https://doi.org/10.3390/nano7080225,Fe1Fe2O4,,0.139,0.000,2.391,1.000,72.000,0.000,0.000,3.000,6.090
https://doi.org/10.1039/C6RA00347H,Fe1Fe2O4,PAA,0.666,0.000,2.391,1.000,42.630,0.257,1.000,1.410,8.670
https://doi.org/10.1002/anie.200805149,Mn1Fe2O4,,0.200,0.000,2.537,1.071,125.000,0.000,0.000,4.500,6.540
https://doi.org/10.1002/anie.200805149,Zn0.3Mn0.7Fe2O4,,0.200,0.000,2.283,0.964,166.000,0.000,0.000,4.500,6.540
https://doi.org/10.1002/anie.200805149,Zn0.4Mn0.6Fe2O4,,0.200,0.000,2.199,0.929,175.000,0.000,0.000,4.500,6.540
https://doi.org/10.1002/anie.200805149,Zn0.8Mn0.2Fe2O4,,0.200,0.000,1.861,0.786,137.000,0.000,0.000,4.500,6.540
https://doi.org/10.1002/anie.200805149,Zn0.2Fe0.8Fe2O4,,0.200,0.000,2.251,0.943,140.000,0.000,0.000,4.500,3.173
https://doi.org/10.1002/anie.200805149,Zn0.3Fe0.7Fe2O4,,0.200,0.000,2.181,0.914,152.000,0.000,0.000,4.500,6.540
https://doi.org/10.1155/2013/462540,Co1Fe2O4,,0.413,0.000,2.246,1.000,28.420,0.000,0.000,0.470,12.800
https://doi.org/10.1016/0730-725X(88)90088-4,Co1Fe2O4,,0.413,0.000,2.246,1.000,28.420,0.000,0.000,1.400,7.100
https://doi.org/10.1155/2013/462540,Co1Fe2O4,,0.352,0.000,2.246,1.000,30.930,0.000,0.000,0.470,16.600
https://doi.org/10.1155/2013/462540,Co1Fe2O4,,0.352,0.000,2.246,1.000,30.930,0.000,0.000,1.400,7.900
https://doi.org/10.1155/2013/462540,Co1Fe2O4,,0.324,0.000,2.246,1.000,38.950,0.000,0.000,0.470,24.100
https://doi.org/10.1155/2013/462540,Co1Fe2O4,,0.324,0.000,2.246,1.000,38.950,0.000,0.000,1.400,9.700
https://doi.org/10.1155/2013/462540,Co1Fe2O4,,0.289,0.000,2.246,1.000,41.090,0.000,0.000,0.470,26.900
https://doi.org/10.1155/2013/462540,Co1Fe2O4,,0.289,0.000,2.246,1.000,41.090,0.000,0.000,1.400,10.000
https://doi.org/10.1155/2013/462540,Co1Fe2O4,,0.272,0.000,2.246,1.000,45.500,0.000,0.000,0.470,27.800
https://doi.org/10.1155/2013/462540,Co1Fe2O4,,0.272,0.000,2.246,1.000,45.500,0.000,0.000,1.400,9.100
https://doi.org/10.1039/C3RA43985B,Fe1Fe2O4,,0.500,0.000,2.391,1.000,59.600,0.000,0.000,1.500,17.200
https://doi.org/10.1039/C3RA43985B,Fe1Fe2O4,,0.500,0.000,2.391,1.000,59.600,0.000,0.000,3.000,11.200
https://doi.org/10.1039/C3RA43985B,Mn0.13Fe0.87Fe2O4,,0.500,0.000,2.410,1.009,64.000,0.000,0.000,1.500,19.300
https://doi.org/10.1039/C3RA43985B,Mn0.13Fe0.87Fe2O4,,0.500,0.000,2.410,1.009,64.000,0.000,0.000,3.000,10.600
https://doi.org/10.1039/C3RA43985B,Mn0.25Fe0.75Fe2O4,,0.500,0.000,2.428,1.018,72.000,0.000,0.000,1.500,20.100
https://doi.org/10.1039/C3RA43985B,Mn0.25Fe0.75Fe2O4,,0.500,0.000,2.428,1.018,72.000,0.000,0.000,3.000,10.800
https://doi.org/10.1039/C3RA43985B,Mn0.34Fe0.66Fe2O4,,0.500,0.000,2.441,1.024,75.000,0.000,0.000,1.500,21.500
https://doi.org/10.1039/C3RA43985B,Mn0.34Fe0.66Fe2O4,,0.500,0.000,2.441,1.024,75.000,0.000,0.000,3.000,10.500
https://doi.org/10.1021/nn507193f,Gd0.22Fe0.89Fe1.78O4,Sodium citrate,1.556,1.000,2.416,1.016,61.633,-5.253,7.000,7.000,3.500
https://doi.org/10.1021/nn507193f,Gd0.54Fe0.73Fe1.46O4,Sodium citrate,1.556,1.000,2.453,1.040,81.300,-5.253,7.000,0.500,66.300
https://doi.org/10.1021/acsomega.8b03004,Fe1Fe2O4,Citric acid,0.714,0.000,2.391,1.000,82.300,-1.248,4.000,1.500,11.900
https://doi.org/10.1021/acsomega.8b03004,Cu0.02Fe0.98Fe2O4,Citric acid,0.937,0.000,2.382,0.996,76.600,-1.248,4.000,1.500,13.600
https://doi.org/10.1021/acsomega.8b03004,Cu0.04Fe0.96Fe2O4,Citric acid,0.186,0.000,2.373,0.991,56.200,-1.248,4.000,1.500,15.700
https://doi.org/10.1021/acsomega.8b03004,Cu0.28Fe0.72Fe2O4,Citric acid,0.187,0.000,2.265,0.940,43.800,-1.248,4.000,1.500,8.500
https://doi.org/10.1002/jmri.21194,Fe1Fe2O4,DSPE,0.220,0.000,2.391,1.000,83.333,12.057,8.000,0.470,12.600
https://doi.org/10.1002/jmri.21194,Fe1Fe2O4,DSPE,0.220,0.000,2.391,1.000,61.533,12.057,8.000,0.470,25.200
https://doi.org/10.1002/jmri.21194,Fe1Fe2O4,DSPE,0.205,0.000,2.391,1.000,59.700,12.057,8.000,0.470,24.400
https://doi.org/10.1016/j.biomaterials.2012.11.054,Fe1Fe2O4,PEG,0.600,0.000,2.391,1.000,60.243,-1.029,2.000,3.000,0.800
https://doi.org/10.1016/j.biomaterials.2012.11.054,Fe1Fe2O4,PEG,0.273,0.000,2.391,1.000,67.000,-1.029,2.000,3.000,1.100
https://doi.org/10.1016/j.biomaterials.2012.11.054,Fe1Fe2O4,Mn1O1,0.125,1.000,2.391,1.000,51.500,0.000,0.000,3.000,1.400
https://doi.org/10.1021/acsnano.7b02675,Fe1Fe2O4,Gd2O3,0.029,0.000,2.391,1.000,20.900,-0.045,9.000,9.400,7.910
https://doi.org/10.1021/acs.nanolett.0c04574,Zn0.1Fe0.9Fe2O4,DHCA,0.810,0.000,2.321,0.971,33.000,1.115,3.000,3.000,3.850
https://doi.org/10.1021/acs.nanolett.0c04574,Zn0.2Fe0.8Fe2O4,DHCA,0.731,0.000,2.251,0.943,37.770,1.115,3.000,3.000,4.280
https://doi.org/10.1021/acs.nanolett.0c04574,Zn0.3Fe0.7Fe2O4,DHCA,0.789,0.000,2.181,0.914,44.290,1.115,3.000,3.000,10.050
https://doi.org/10.1021/acs.nanolett.0c04574,Zn0.4Fe0.6Fe2O4,DHCA,0.731,0.000,2.111,0.886,51.130,1.115,3.000,3.000,13.770
https://doi.org/10.1021/acs.nanolett.0c04574,Zn0.5Fe0.5Fe2O4,DHCA,0.856,0.000,2.041,0.857,50.430,1.115,3.000,3.000,11.490
https://doi.org/10.1021/acs.nanolett.0c04574,Zn0.6Fe0.4Fe2O4,DHCA,0.882,0.000,1.971,0.829,48.620,1.115,3.000,3.000,10.240
https://doi.org/10.1021/acs.nanolett.0c04574,Zn0.7Fe0.3Fe2O4,DHCA,0.769,0.000,1.901,0.800,39.800,1.115,3.000,3.000,7.180
https://doi.org/10.1021/acs.nanolett.0c04574,Zn0.8Fe0.2Fe2O4,DHCA,0.810,0.000,1.831,0.771,30.800,1.115,3.000,3.000,3.180
https://doi.org/10.1021/acs.nanolett.0c04574,Zn0.9Fe0.1Fe2O4,DHCA,0.833,0.000,1.761,0.743,11.200,1.115,3.000,3.000,1.300
https://doi.org/10.1021/acs.nanolett.0c04574,Fe2O3,Fe1Fe2O3,0.810,0.000,2.368,1.000,21.000,0.000,0.000,3.000,3.290