DOI,Core composition,Shell composition,Area/volume,Max/min(size),Magnetic moment of core,Spin of surface elements,Saturation magnetization,LogP of organic coating,Number H acceptors of organic coating,Field strength,r1 relaxivity
https://doi.org/10.1021/acs.nanolett.0c04574,Fe2O3,Mn0.26Fe0.74Fe2O4,0.810,0.000,2.368,1.000,19.000,0.000,0.000,3.000,3.500
https://doi.org/10.1021/acs.nanolett.0c04574,Fe2O3,Mn0.28Fe0.72Fe2O4,0.856,0.000,2.368,1.000,18.000,0.000,0.000,3.000,4.200
https://doi.org/10.1021/acs.nanolett.0c04574,Fe2O3,Mn0.31Fe0.69Fe2O4,0.856,0.000,2.368,1.000,22.000,0.000,0.000,3.000,4.800
https://doi.org/10.1021/acs.nanolett.0c04574,Fe2O3,Mn0.35Fe0.65Fe2O4,0.769,0.000,2.368,1.000,20.000,0.000,0.000,3.000,5.900
https://doi.org/10.1021/acs.nanolett.0c04574,Fe2O3,Mn0.42Fe0.58Fe2O4,0.810,0.000,2.368,1.000,24.000,0.000,0.000,3.000,9.200
https://doi.org/10.1021/acs.nanolett.0c04574,Fe2O3,Mn0.43Fe0.57Fe2O4,0.810,0.000,2.368,1.000,21.000,0.000,0.000,3.000,9.000
https://doi.org/10.1021/acs.nanolett.0c04574,Zn0.2Fe0.8Fe2O4,Zn0.2Mn0.05Fe0.75Fe2O4,0.789,0.000,2.251,0.943,40.600,0.000,0.000,3.000,4.790
https://doi.org/10.1021/acs.nanolett.0c04574,Zn0.2Fe0.8Fe2O4,Zn0.2Mn0.08Fe0.72Fe2O4,0.789,0.000,2.251,0.943,27.133,0.000,0.000,3.000,5.010
https://doi.org/10.1021/acs.nanolett.0c04574,Zn0.2Fe0.8Fe2O4,Zn0.2Mn0.1Fe0.7Fe2O4,0.789,0.000,2.251,0.943,37.190,0.000,0.000,3.000,5.590
https://doi.org/10.1021/acs.nanolett.0c04574,Zn0.2Fe0.8Fe2O4,Zn0.2Mn0.2Fe0.6Fe2O4,0.789,0.000,2.251,0.943,34.000,0.000,0.000,3.000,6.300
https://doi.org/10.1021/acs.nanolett.0c04574,Zn0.3Fe0.7Fe2O4,Zn0.3Mn0.08Fe0.62Fe2O4,0.789,0.000,2.181,0.914,57.333,0.000,0.000,3.000,11.250
https://doi.org/10.1021/acs.nanolett.0c04574,Zn0.3Fe0.7Fe2O4,Zn0.3Mn0.2Fe0.5Fe2O4,0.789,0.000,2.181,0.914,50.000,0.000,0.000,3.000,14.760
https://doi.org/10.1021/acs.nanolett.0c04574,Zn0.4Fe0.6Fe2O4,Zn0.4Mn0.05Fe0.55Fe2O4,0.789,0.000,2.111,0.886,50.000,0.000,0.000,3.000,14.820
https://doi.org/10.1021/acs.nanolett.0c04574,Zn0.4Fe0.6Fe2O4,Zn0.4Mn0.08Fe0.52Fe2O4,0.789,0.000,2.111,0.886,50.000,0.000,0.000,3.000,15.350
https://doi.org/10.1021/acs.nanolett.0c04574,Zn0.4Fe0.6Fe2O4,Zn0.4Mn0.1Fe0.5Fe2O4,0.789,0.000,2.111,0.886,50.000,0.000,0.000,3.000,16.670
https://doi.org/10.1021/acs.nanolett.0c04574,Zn0.4Fe0.6Fe2O4,Zn0.4Mn0.2Fe0.4Fe2O4,0.789,0.000,2.111,0.886,50.000,0.000,0.000,3.000,20.220
https://doi.org/10.1021/acs.nanolett.0c04574,Zn0.5Fe0.5Fe2O4,Zn0.5Mn0.2Fe0.3Fe2O4,0.789,0.000,2.041,0.857,50.000,0.000,0.000,3.000,16.940
https://doi.org/10.1021/acs.nanolett.0c04574,Zn0.6Fe0.4Fe2O4,Zn0.6Mn0.05Fe0.35Fe2O4,0.789,0.000,1.971,0.829,50.143,0.000,0.000,3.000,11.170
https://doi.org/10.1021/acs.nanolett.0c04574,Zn0.6Fe0.4Fe2O4,Zn0.6Mn0.2Fe0.2Fe2O4,0.789,0.000,1.971,0.829,50.000,0.000,0.000,3.000,13.800
https://doi.org/10.1021/acs.nanolett.0c04574,Zn0.7Fe0.3Fe2O4,Zn0.7Mn0.05Fe0.25Fe2O4,0.789,0.000,1.901,0.800,56.667,0.000,0.000,3.000,8.660
https://doi.org/10.1021/acs.nanolett.0c04574,Zn0.7Fe0.3Fe2O4,Zn0.7Mn0.08Fe0.22Fe2O4,0.789,0.000,1.901,0.800,37.933,0.000,0.000,3.000,8.980
https://doi.org/10.1021/acs.nanolett.0c04574,Zn0.7Fe0.3Fe2O4,Zn0.7Mn0.2Fe0.1Fe2O4,0.789,0.000,1.901,0.800,40.000,0.000,0.000,3.000,11.580
https://doi.org/10.1021/acs.nanolett.0c04574,Zn0.8Fe0.2Fe2O4,Zn0.8Mn0.05Fe0.15Fe2O4,0.789,0.000,1.831,0.771,32.267,0.000,0.000,3.000,3.830
https://doi.org/10.1021/acs.nanolett.0c04574,Zn0.8Fe0.2Fe2O4,Zn0.8Mn0.08Fe0.12Fe2O4,0.789,0.000,1.831,0.771,20.000,0.000,0.000,3.000,4.900
https://doi.org/10.1021/acs.nanolett.0c04574,Zn0.8Fe0.2Fe2O4,Zn0.8Mn0.1Fe0.1Fe2O4,0.789,0.000,1.831,0.771,30.577,0.000,0.000,3.000,5.580
https://doi.org/10.1021/acs.nanolett.0c04574,Zn0.8Fe0.2Fe2O4,Zn0.8Mn0.2Fe2O4,0.789,0.000,1.831,0.771,30.000,0.000,0.000,3.000,7.320
https://doi.org/10.1021/acs.nanolett.0c04574,Zn0.9Fe0.1Fe2O4,Zn0.9Mn0.05Fe0.05Fe2O4,0.789,0.000,1.761,0.743,14.067,0.000,0.000,3.000,2.420
https://doi.org/10.1021/acs.nanolett.0c04574,Zn0.9Fe0.1Fe2O4,Zn0.9Mn0.08Fe0.02Fe2O4,0.789,0.000,1.761,0.743,16.667,0.000,0.000,3.000,3.060
https://doi.org/10.1021/acs.nanolett.0c04574,Zn0.9Fe0.1Fe2O4,Zn0.9Mn0.2Fe1.9O4,0.789,0.000,1.761,0.743,10.000,0.000,0.000,3.000,4.390
https://doi.org/10.1021/acs.nanolett.0c04574,Zn0.2Fe0.8Fe2O4,Zn0.2Gd0.2Fe0.6Fe2O4,0.789,0.000,2.251,0.943,48.667,0.000,0.000,3.000,9.920
https://doi.org/10.1021/acs.nanolett.0c04574,Zn0.9Fe0.1Fe2O4,Zn0.9Gd0.2Fe1.9O4,0.789,0.000,1.761,0.743,17.533,0.000,0.000,3.000,6.020
https://doi.org/10.1021/acs.nanolett.0c04574,Zn0.2Fe0.8Fe2O4,Zn0.2Cu0.2Fe0.6Fe2O4,0.789,0.000,2.251,0.943,19.800,0.000,0.000,3.000,3.750
https://doi.org/10.1021/acs.nanolett.0c04574,Zn0.3Fe0.7Fe2O4,Zn0.3Cu0.2Fe0.5Fe2O4,0.789,0.000,2.181,0.914,57.873,0.000,0.000,3.000,9.630
https://doi.org/10.1021/acs.nanolett.0c04574,Zn0.5Fe0.5Fe2O4,Zn0.5Cu0.2Fe0.3Fe2O4,0.789,0.000,2.041,0.857,49.540,0.000,0.000,3.000,11.350
https://doi.org/10.1021/acs.nanolett.0c04574,Zn0.6Fe0.4Fe2O4,Zn0.6Cu0.2Fe0.2Fe2O4,0.789,0.000,1.971,0.829,49.540,0.000,0.000,3.000,10.640
https://doi.org/10.1021/acs.nanolett.0c04574,Zn0.7Fe0.3Fe2O4,Zn0.7Cu0.2Fe0.1Fe2O4,0.789,0.000,1.901,0.800,37.933,0.000,0.000,3.000,8.500
https://doi.org/10.1021/ja104503g,Mn1Fe2O4,Si1O2,0.060,0.000,2.537,1.071,55.000,0.000,0.000,4.700,33.100
https://doi.org/10.1002/adma.201203169,Gd0.14Fe0.93Fe1.86O4,HDA-G2,0.214,0.000,2.407,1.010,26.500,5.426,1.000,0.500,69.500
https://doi.org/10.1021/ja3016582,Fe1Fe2O4,TaOx,0.375,0.000,2.391,1.000,4.300,-1.029,2.000,3.000,6.230
https://doi.org/10.1021/acsami.7b05389,Fe1Fe2O4,Si1O2,0.125,0.000,2.391,1.000,50.113,0.000,0.000,0.470,3.020
https://doi.org/10.1016/j.biomaterials.2016.05.054,Fe1Fe2O4,Mn3O4,0.225,0.000,2.391,1.000,48.000,0.000,0.000,1.500,2.400
https://doi.org/10.1021/nl902715v,Fe1Fe2O4,PEG-550,0.749,0.000,2.391,1.000,40.667,-1.029,2.000,1.410,7.000
https://doi.org/10.1021/nl902715v,Fe1Fe2O4,PEG-2000,0.749,0.000,2.391,1.000,36.130,-1.029,2.000,1.410,7.000
doi:10.7150/thno.14280,Fe1Fe2O4,PEG,0.566,0.000,2.391,1.000,46.000,-1.029,2.000,3.000,7.820
doi:10.7150/thno.14280,Fe1Fe2O4,RGD,0.566,0.000,2.391,1.000,49.000,-1.826,11.000,3.000,7.740
https://doi.org/10.1016/j.bioactmat.2021.09.028,Fe1Fe2O4,,0.319,0.000,2.391,1.000,56.000,0.000,0.000,1.657,2.840
https://doi.org/10.1016/j.bioactmat.2021.09.028,Fe1Fe2O4,Oleic acid,0.138,0.000,2.391,1.000,30.000,6.109,1.000,1.657,3.230
https://doi.org/10.1016/j.bioactmat.2021.09.028,Fe1Fe2O4,Oleic acid,1.000,0.000,2.391,1.000,30.000,3.370,6.000,3.800,6.120
https://doi.org/10.1038/nm1467,Mn1Fe2O4,,0.500,0.000,2.537,1.071,62.000,0.000,0.000,1.500,13.207
https://doi.org/10.1038/nm1467,Fe1Fe2O4,,0.250,0.000,2.391,1.000,101.000,0.000,0.000,1.500,6.540
https://doi.org/10.1038/nm1467,Co1Fe2O4,,0.250,0.000,2.246,1.000,99.000,0.000,0.000,1.500,6.540
https://doi.org/10.1021/ja203340u,Fe1Fe2O4,,1.363,0.000,2.391,1.000,29.000,0.000,0.000,3.000,4.780
https://doi.org/10.1021/ja203340u,Fe1Fe2O4,,0.999,0.000,2.391,1.000,36.000,0.000,0.000,3.000,4.770
https://doi.org/10.1021/ja203340u,Fe1Fe2O4,,0.250,0.000,2.391,1.000,48.000,0.000,0.000,3.000,2.370
DOI: 10.1038/ncomms3266,Fe1Fe2O4,,0.150,0.000,2.391,1.000,51.000,0.000,0.000,7.000,21.967
DOI: 10.1038/ncomms3266,Fe1Fe2O4,,0.187,0.000,2.391,1.000,67.000,0.000,0.000,7.000,2.897
https://doi.org/10.1021/acsnano.8b01048,Mn0.43Fe0.57Fe2O4,Sodium citrate,0.200,0.000,2.454,1.031,73.200,-5.253,7.000,0.500,23.500
https://doi.org/10.1021/acsnano.8b01048,Mn0.43Fe0.57Fe2O4,Sodium citrate,0.200,0.000,2.454,1.031,73.200,-5.253,7.000,1.500,21.300
https://doi.org/10.1021/acsnano.8b01048,Mn0.43Fe0.57Fe2O4,Sodium citrate,0.200,0.000,2.454,1.031,73.200,-5.253,7.000,7.000,19.273
https://doi.org/10.1021/acsnano.8b01048,Mn0.43Fe0.57Fe2O4,Sodium citrate,0.500,0.000,2.454,1.031,75.700,-5.253,7.000,0.500,33.700
https://doi.org/10.1021/acsnano.8b01048,Mn0.43Fe0.57Fe2O4,Sodium citrate,0.500,0.000,2.454,1.031,75.700,-5.253,7.000,1.500,28.900
https://doi.org/10.1021/acsnano.8b01048,Mn0.43Fe0.57Fe2O4,Sodium citrate,0.733,1.000,2.454,1.031,76.400,-5.253,7.000,0.500,49.000
https://doi.org/10.1021/acsnano.8b01048,Mn0.43Fe0.57Fe2O4,Sodium citrate,0.733,1.000,2.454,1.031,76.400,-5.253,7.000,1.500,46.300
https://doi.org/10.1021/acsnano.8b01048,Mn0.43Fe0.57Fe2O4,Sodium citrate,0.588,0.000,2.454,1.031,77.500,-5.253,7.000,0.500,50.300
https://doi.org/10.1021/acsnano.8b01048,Mn0.43Fe0.57Fe2O4,Sodium citrate,0.588,0.000,2.454,1.031,77.500,-5.253,7.000,1.500,45.900
https://doi.org/10.1021/acsnano.8b01048,Mn0.43Fe0.57Fe2O4,Sodium citrate,0.588,0.000,2.454,1.031,77.500,-5.253,7.000,7.000,6.540
https://doi.org/10.1021/acsnano.8b01048,Mn0.43Fe0.57Fe2O4,Sodium citrate,0.444,0.000,2.454,1.031,78.900,-5.253,7.000,0.500,39.200
https://doi.org/10.1021/acsnano.8b01048,Mn0.43Fe0.57Fe2O4,Sodium citrate,0.444,0.000,2.454,1.031,78.900,-5.253,7.000,1.500,44.600
https://doi.org/10.1021/acsnano.8b01048,Mn0.43Fe0.57Fe2O4,Sodium citrate,0.100,0.000,2.454,1.031,81.100,-5.253,7.000,0.500,56.400
https://doi.org/10.1021/acsnano.8b01048,Mn0.43Fe0.57Fe2O4,Sodium citrate,0.100,0.000,2.454,1.031,81.100,-5.253,7.000,1.500,46.900
https://doi.org/10.1021/nl3010308,Fe1Fe2O4,PEG-phospolipid,0.273,0.000,2.391,1.000,108.000,0.000,0.000,3.000,6.540
https://doi.org/10.1021/nl3010308,Fe1Fe2O4,PEG-phospolipid,0.188,0.000,2.391,1.000,108.000,0.000,0.000,3.000,6.540
https://doi.org/10.1021/nl3010308,Fe1Fe2O4,PEG-phospolipid,0.122,0.000,2.391,1.000,64.167,0.000,0.000,3.000,18.700
https://doi.org/10.1002/adma.200401904,Fe1Fe2O4,DSPE-PEG5k,0.749,0.000,2.391,1.000,26.333,11.609,8.000,1.500,1.300
https://doi.org/10.1002/adma.200401904,Fe1Fe2O4,PCL5k-b-PEG5k,0.187,0.000,2.391,1.000,82.633,1.104,2.000,1.500,2.000
https://doi.org/10.1021/acs.chemmater.6b01256,Mn0.08Fe0.92Fe2O4,,0.176,0.000,2.403,1.006,57.300,0.000,0.000,7.000,20.233
https://doi.org/10.1021/acs.chemmater.6b01256,Zn0.11Fe0.89Fe2O4,,0.273,0.000,2.314,0.969,78.000,0.000,0.000,7.000,6.540
https://doi.org/10.1021/acs.chemmater.6b01256,Zn0.11Fe0.89Fe2O4,,0.094,0.000,2.314,0.969,73.000,0.000,0.000,7.000,2.760
https://doi.org/10.1021/acs.chemmater.8b04760,Fe1Fe2O4,Sodium citrate,0.075,1.000,2.391,1.000,70.500,-5.253,7.000,1.500,49.400
https://doi.org/10.1021/acs.chemmater.8b04760,Zn0.44Fe0.56Fe2O4,Sodium citrate,0.075,0.000,2.083,0.874,88.900,-5.253,7.000,0.500,6.540
https://doi.org/10.1021/acs.chemmater.8b04760,Zn0.44Fe0.56Fe2O4,Sodium citrate,0.075,0.000,2.083,0.874,88.900,-5.253,7.000,1.500,37.200
https://doi.org/10.1038/ncomms15468,Fe1Fe2O4,PEG-PMMA,0.576,0.000,2.391,1.000,43.180,0.736,2.000,7.000,1.380
https://doi.org/10.1038/ncomms15468,Fe1Fe2O4,PEG-PMMA,0.199,0.000,2.391,1.000,65.100,0.736,2.000,7.000,1.170
https://doi.org/10.1038/ncomms15468,Fe1Fe2O4,,0.026,0.000,2.391,1.000,40.280,0.000,0.000,7.000,2.110
https://doi.org/10.1038/ncomms15468,Fe1Fe2O4,,0.023,0.000,2.391,1.000,60.370,0.000,0.000,7.000,0.800
https://doi.org/10.1038/ncomms15468,Fe1Fe2O4,,0.023,0.000,2.391,1.000,53.690,0.000,0.000,7.000,0.920
https://doi.org/10.1038/ncomms15468,Fe1Fe2O4,,0.021,0.000,2.391,1.000,54.730,0.000,0.000,7.000,1.560
https://doi.org/10.1038/ncomms15468,Fe1Fe2O4,,0.470,1.000,2.391,1.000,57.600,0.000,0.000,7.000,1.440
https://doi.org/10.1038/ncomms15468,Fe1Fe2O4,,0.035,0.000,2.391,1.000,51.230,0.000,0.000,7.000,2.240
https://doi.org/10.1038/ncomms15468,Fe1Fe2O4,,0.033,0.000,2.391,1.000,51.380,0.000,0.000,7.000,2.760
https://doi.org/10.1002/adma.201304744,Fe1Fe2O4,DP-PEG,0.833,0.000,2.391,1.000,13.000,-3.340,7.000,3.000,3.210
https://doi.org/10.1002/adma.201304744,Fe1Fe2O4,HX-PEG,0.833,0.000,2.391,1.000,22.900,-0.488,2.000,3.000,4.200
https://doi.org/10.1002/adma.201304744,Fe1Fe2O4,HX-PEG,0.275,0.000,2.391,1.000,29.400,-0.488,2.000,3.000,3.120
https://doi.org/10.1002/adma.201304744,Fe1Fe2O4,CC-PEG,0.275,0.000,2.391,1.000,22.300,1.098,2.000,3.000,2.480
https://doi.org/10.1002%2Fcmmi.1473,Fe1Fe2O4,Si1O2,0.158,0.000,2.391,1.000,2.500,0.000,0.000,3.000,3.927
https://doi.org/10.1021/nl102623x,Fe1Fe2O4,DSPE-mPEG750,0.600,0.000,2.391,1.000,43.853,12.057,8.000,0.470,4.187
https://doi.org/10.1021/nl102623x,Fe1Fe2O4,DSPE-mPEG1000,0.214,0.000,2.391,1.000,40.343,12.057,8.000,0.470,8.800
https://doi.org/10.1021/acsnano.7b04924,Fe1Fe2O4,,1.578,0.000,2.391,1.000,56.000,0.000,0.000,7.000,0.410
https://doi.org/10.1021/acsnano.7b04924,Fe1Fe2O4,,0.908,0.000,2.391,1.000,6.000,0.000,0.000,7.000,1.590
https://doi.org/10.1021/acsnano.7b04924,Fe1Fe2O4,,0.833,0.000,2.391,1.000,9.500,0.000,0.000,7.000,2.320
https://doi.org/10.1021/acsnano.7b04924,Fe1Fe2O4,,0.833,0.000,2.391,1.000,9.500,0.000,0.000,1.500,8.800
https://doi.org/10.1021/acsnano.7b04924,Fe1Fe2O4,,0.833,0.000,2.391,1.000,9.500,0.000,0.000,0.500,12.660
https://doi.org/10.1021/acsnano.7b04924,Fe1Fe2O4,,0.714,0.000,2.391,1.000,13.000,0.000,0.000,7.000,1.870
https://doi.org/10.1021/acs.chemmater.8b03564,Fe2O3,,0.273,0.000,2.368,1.000,59.820,0.000,0.000,0.500,4.300
https://doi.org/10.1021/acs.chemmater.8b03564,Fe2O3,,0.273,0.000,2.368,1.000,59.820,0.000,0.000,1.500,4.100
https://doi.org/10.1021/acs.chemmater.8b03564,Fe2O3,,0.176,0.000,2.368,1.000,60.390,0.000,0.000,0.500,11.500
https://doi.org/10.1021/acs.chemmater.8b03564,Fe2O3,,0.176,0.000,2.368,1.000,60.390,0.000,0.000,1.500,4.500
https://doi.org/10.1021/acs.chemmater.8b03564,Fe2O3,,0.115,0.000,2.368,1.000,44.200,0.000,0.000,0.500,16.500
https://doi.org/10.1021/acs.chemmater.8b03564,Fe2O3,,0.115,0.000,2.368,1.000,44.200,0.000,0.000,1.500,9.800
https://doi.org/10.1002/adfm.201403436,Fe2O3,Tween-80,1.100,1.000,2.368,1.000,20.200,4.115,10.000,1.400,6.130
https://doi.org/10.1021/nn5038652,Fe1Fe2O4,DMSA,0.852,1.000,2.391,1.000,34.500,-0.248,4.000,0.500,14.360
https://doi.org/10.1021/nn5038652,Fe1Fe2O4,DMSA,0.555,1.000,2.391,1.000,57.600,-0.248,4.000,0.500,43.180
https://doi.org/10.1021/nn5038652,Fe1Fe2O4,DMSA,0.555,1.000,2.391,1.000,57.600,-0.248,4.000,7.000,3.270
https://doi.org/10.1021/nn5038652,Fe1Fe2O4,DMSA,0.365,1.000,2.391,1.000,74.100,-0.248,4.000,0.500,38.110
https://doi.org/10.1021/nn5038652,Fe1Fe2O4,DMSA,0.365,1.000,2.391,1.000,74.100,-0.248,4.000,7.000,3.840
https://doi.org/10.1021/nn5038652,Fe1Fe2O4,Si1O2,0.555,1.000,2.391,1.000,55.267,0.000,0.000,0.500,2.000
https://doi.org/10.1021/nn5038652,Fe1Fe2O4,Si1O2,0.852,1.000,2.391,1.000,63.667,0.000,0.000,0.500,2.000
https://doi.org/10.1021/nn5038652,Fe1Fe2O4,stPEI,0.555,1.000,2.391,1.000,78.633,0.000,0.000,0.500,3.590
https://doi.org/10.1021/nn5038652,Fe1Fe2O4,DMSA,0.187,0.000,2.391,1.000,66.000,-0.248,4.000,0.500,7.670
https://doi.org/10.1021/nn5038652,Fe1Fe2O4,DMSA,0.143,0.000,2.391,1.000,49.000,-0.248,4.000,0.500,11.730
https://doi.org/10.1021/nn5038652,Fe1Fe2O4,DMSA,0.115,0.000,2.391,1.000,39.000,-0.248,4.000,0.500,16.490
https://doi.org/10.1021/nn5038652,Fe1Fe2O4,DMSA,0.300,0.000,2.391,1.000,53.000,-0.248,4.000,0.500,3.740
https://doi.org/10.1039/C7TB02954C,Mn0.5Fe0.5Fe2O4,Sodium citrate,0.366,0.000,2.464,1.036,70.000,-5.253,7.000,0.500,57.800
https://doi.org/10.1039/C7TB02954C,Mn0.5Fe0.5Fe2O4,Sodium citrate,0.366,0.000,2.464,1.036,70.000,-5.253,7.000,1.500,25.200
https://doi.org/10.1039/C7TB02954C,Mn0.5Fe0.5Fe2O4,Sodium citrate,0.158,0.000,2.464,1.036,70.000,-5.253,7.000,0.500,62.100
https://doi.org/10.1039/C7TB02954C,Mn0.5Fe0.5Fe2O4,Sodium citrate,0.158,0.000,2.464,1.036,70.000,-5.253,7.000,1.500,28.400
https://doi.org/10.1039/C7TB02954C,Mn0.5Fe0.5Fe2O4,Sodium citrate,1.196,1.000,2.464,1.036,42.000,-5.253,7.000,0.500,22.400
https://doi.org/10.1039/C7TB02954C,Mn0.5Fe0.5Fe2O4,Sodium citrate,1.196,1.000,2.464,1.036,42.000,-5.253,7.000,1.500,14.300
https://doi.org/10.1039/C7TB02954C,Fe1Fe2O4,Sodium citrate,0.347,0.000,2.391,1.000,54.000,-5.253,7.000,0.500,16.300
https://doi.org/10.1039/C7TB02954C,Fe1Fe2O4,Sodium citrate,0.347,0.000,2.391,1.000,54.000,-5.253,7.000,1.500,10.700
https://doi.org/10.1039/C7TB02954C,Fe1Fe2O4,Sodium citrate,0.158,0.000,2.391,1.000,51.000,-5.253,7.000,0.500,14.400
https://doi.org/10.1039/C7TB02954C,Fe1Fe2O4,Sodium citrate,0.158,0.000,2.391,1.000,51.000,-5.253,7.000,1.500,10.400
https://doi.org/10.1039/C7TB02954C,Fe1Fe2O4,Sodium citrate,1.136,1.000,2.391,1.000,32.000,-5.253,7.000,0.500,11.200
https://doi.org/10.1039/C7TB02954C,Fe1Fe2O4,Sodium citrate,1.136,1.000,2.391,1.000,32.000,-5.253,7.000,1.500,8.200
https://doi.org/10.1039/C7TB02954C,Fe1Fe2O4,Mn0.5Fe0.5Fe2O4,0.181,0.000,2.391,1.000,52.000,0.000,0.000,0.500,33.800
https://doi.org/10.1039/C7TB02954C,Fe1Fe2O4,,0.205,0.000,2.391,1.000,47.000,0.000,0.000,0.500,9.800
https://doi.org/10.1039/C7TB02954C,Mn0.5Fe0.5Fe2O4,,0.136,0.000,2.464,1.036,59.000,0.000,0.000,0.500,33.900
https://doi.org/10.1021/jz201664h,Na1Dy1F4,PMAO-PEG,0.555,0.000,2.060,0.500,23.867,6.670,3.000,9.400,0.300
https://doi.org/10.1021/jz201664h,Na1Dy1F4,PMAO-PEG,0.555,0.000,2.060,0.500,54.000,6.670,3.000,3.000,0.240
https://doi.org/10.1016/j.biomaterials.2015.10.063,Na1Ho1F4,PEG,0.937,0.000,2.038,0.417,65.000,-1.029,2.000,1.500,0.260
https://doi.org/10.1016/j.biomaterials.2015.10.063,Na1Ho1F4,PEG,0.937,0.000,2.038,0.417,65.000,-1.029,2.000,3.000,0.180
https://doi.org/10.1016/j.biomaterials.2015.10.063,Na1Ho1F4,PEG,0.937,0.000,2.038,0.417,65.000,-1.029,2.000,7.000,0.400
https://doi.org/10.1016/j.biomaterials.2015.10.063,Na1Ho1F4,PEG,0.405,0.000,2.038,0.417,80.000,-1.029,2.000,3.000,0.080
https://doi.org/10.1016/j.biomaterials.2015.10.063,Na1Ho1F4,PEG,0.405,0.000,2.038,0.417,80.000,-1.029,2.000,7.000,0.230
https://doi.org/10.1016/j.biomaterials.2015.10.063,Na1Ho1F4,PEG,0.227,0.000,2.038,0.417,83.000,-1.029,2.000,1.500,0.150
https://doi.org/10.1016/j.biomaterials.2015.10.063,Na1Ho1F4,PEG,0.227,0.000,2.038,0.417,83.000,-1.029,2.000,3.000,0.130
https://doi.org/10.1016/j.biomaterials.2015.10.063,Na1Ho1F4,PEG,0.227,0.000,2.038,0.417,83.000,-1.029,2.000,7.000,0.350
https://doi.org/10.1016/j.biomaterials.2015.10.063,Na1Ho1F4,PEG,0.189,1.000,2.038,0.417,90.000,-1.029,2.000,1.500,0.110
https://doi.org/10.1016/j.biomaterials.2015.10.063,Na1Ho1F4,PEG,0.189,1.000,2.038,0.417,90.000,-1.029,2.000,3.000,0.240
https://doi.org/10.1016/j.biomaterials.2015.10.063,Na1Ho1F4,PEG,0.189,1.000,2.038,0.417,90.000,-1.029,2.000,7.000,0.620
https://doi.org/10.1021/acs.chemmater.6b00264,Na1Ho1F4,DSPE-mPEG2000,0.283,0.000,2.038,0.417,28.200,12.057,8.000,9.400,0.180
https://doi.org/10.1021/acs.chemmater.6b00264,Na1Ho1F4,DSPE-mPEG2000,0.213,0.000,2.038,0.417,45.257,12.057,8.000,9.400,0.250
https://doi.org/10.1021/acs.chemmater.6b00264,Na1Ho1F4,DSPE-mPEG2000,0.183,0.000,2.038,0.417,41.227,12.057,8.000,9.400,0.220
https://doi.org/10.1021/acs.chemmater.6b00264,Na1Ho1F4,PMAO-PEG,0.294,0.000,2.038,0.417,31.067,6.670,3.000,9.400,0.060
https://doi.org/10.1021/acs.chemmater.6b00264,Na1Ho1F4,PMAO-PEG,0.207,0.000,2.038,0.417,67.933,6.670,3.000,9.400,0.150
https://doi.org/10.1021/acs.chemmater.6b00264,Na1Ho1F4,PMAO-PEG,0.183,0.000,2.038,0.417,73.700,6.670,3.000,9.400,0.170
https://doi.org/10.1021/acs.chemmater.6b00264,Na1Dy1F4,PMAO-PEG,0.233,1.000,2.060,0.500,47.260,6.670,3.000,9.400,0.240
https://doi.org/10.1021/acs.chemmater.6b00264,Na1Dy1F4,PMAO-PEG,0.216,1.000,2.060,0.500,65.000,6.670,3.000,9.400,0.160
https://doi.org/10.1021/acs.chemmater.6b00264,Na1Dy1F4,PMAO-PEG,0.185,1.000,2.060,0.500,43.533,6.670,3.000,9.400,0.130
https://doi.org/10.1021/acs.chemmater.6b00264,Na1Dy1F4,PMAO-PEG,0.137,1.000,2.060,0.500,54.400,6.670,3.000,9.400,0.500
https://doi.org/10.1039/C5NR00055F,Fe1Fe2O4,PEI,0.290,1.000,2.391,1.000,58.000,-1.096,2.000,3.000,9.940
https://doi.org/10.1039/C5NR00055F,Fe1Fe2O4,PEI,0.233,1.000,2.391,1.000,63.000,-1.096,2.000,3.000,6.540
https://doi.org/10.1039/C5NR00055F,Fe1Fe2O4,PEI,0.749,0.000,2.391,1.000,56.000,-1.096,2.000,3.000,11.700
https://doi.org/10.1021/nn5038652,Fe1Fe2O4,DMSA,0.999,0.000,2.391,1.000,6.000,-0.248,4.000,0.500,2.410
https://doi.org/10.1021/nn5038652,Fe1Fe2O4,DMSA,0.600,0.000,2.391,1.000,38.000,-0.248,4.000,0.500,6.020
https://doi.org/10.1021/nn5038652,Fe1Fe2O4,DMSA,0.333,0.000,2.391,1.000,50.000,-0.248,4.000,0.500,4.550
https://doi.org/10.1039/C7TB02954C,Mn0.5Fe0.5Fe2O4,Fe1Fe2O3,0.136,0.000,2.464,1.036,54.000,0.000,0.000,0.500,22.300