DOI,Core composition,Shell composition,Concentration of particles,Area/volume,Max/min(size),Magnetic moment of core,Saturation magnetization,Coercivity,Remanence magnetization,LogP of organic coating,Number H acceptors of organic coating,Field amplitude,Field frequency,SAR
https://doi.org/10.1007/s11664-022-09678-5,Fe1Fe2O4,citric acid,5.000,0.434,0.000,2.391,40.000,0.000,0.000,-1.248,4.000,1000.000,0.256,151.400
https://doi.org/10.1007/s11664-022-09678-5,Fe1Fe2O4,citric acid,5.000,0.434,0.000,2.391,40.000,0.000,0.000,-1.248,4.000,1000.000,0.034,130.100
https://doi.org/10.1016/j.jmmm.2022.169282,Co1Fe2O4,folate chitosan,0.500,0.375,0.000,2.246,55.400,20.000,6.200,-0.045,9.000,300.000,0.342,132.000
https://doi.org/10.1016/j.jmmm.2022.169282,Co1Fe2O4,folate chitosan,1.000,0.375,0.000,2.246,55.400,20.000,6.200,-0.045,9.000,300.000,0.342,69.600
https://doi.org/10.1016/j.jmmm.2022.169282,Co1Fe2O4,folate chitosan,2.000,0.375,0.000,2.246,55.400,20.000,6.200,-0.045,9.000,300.000,0.342,58.600
https://doi.org/10.1016/j.jmmm.2022.169282,Co1Fe2O4,folate chitosan,4.000,0.375,0.000,2.246,55.400,20.000,6.200,-0.045,9.000,300.000,0.342,39.600
https://doi.org/10.1016/j.jmmm.2022.169282,Co1Fe2O4,folate chitosan,6.000,0.375,0.000,2.246,55.400,20.000,6.200,-0.045,9.000,300.000,0.342,26.200
https://doi.org/10.1016/j.jmmm.2019.01.081,Zn1Fe2O4,,5.000,0.154,0.000,1.691,12.200,0.000,0.000,0.000,0.000,188.000,0.355,5.600
https://doi.org/10.1016/j.jmmm.2019.01.081,Zn1Fe2O4,,5.000,0.154,0.000,1.691,12.200,0.000,0.000,0.000,0.000,250.800,0.355,7.300
https://doi.org/10.1016/j.jmmm.2019.01.081,Zn1Fe2O4,,5.000,0.154,0.000,1.691,12.200,0.000,0.000,0.000,0.000,313.500,0.355,9.200
https://doi.org/10.1016/j.jmmm.2019.01.081,Zn1Fe2O4,,5.000,0.154,0.000,1.691,12.200,0.000,0.000,0.000,0.000,376.200,0.355,11.800
https://doi.org/10.1016/j.jmmm.2019.01.081,Zn1Fe2O4,,5.000,0.154,0.000,1.691,12.200,0.000,0.000,0.000,0.000,438.900,0.355,12.700
https://doi.org/10.1016/j.jmmm.2019.01.081,Zn1Fe2O4,,5.000,0.154,0.000,1.691,12.200,0.000,0.000,0.000,0.000,501.600,0.355,16.400
https://doi.org/10.1016/j.jmmm.2019.01.081,Zn1Fe2O4,,5.000,0.154,0.000,1.691,12.200,0.000,0.000,0.000,0.000,564.300,0.355,20.000
https://doi.org/10.1016/j.jmmm.2019.01.081,Zn1Fe2O4,,5.000,0.154,0.000,1.691,12.200,0.000,0.000,0.000,0.000,627.000,0.355,25.600
https://doi.org/10.1016/j.jmmm.2019.01.081,Zn1Fe2O4,,5.000,0.154,0.000,1.691,12.200,0.000,0.000,0.000,0.000,689.700,0.355,29.400
https://doi.org/10.1016/j.jmmm.2019.01.081,Zn1Fe2O4,,5.000,0.154,0.000,1.691,12.200,0.000,0.000,0.000,0.000,752.400,0.355,38.400
https://doi.org/10.1016/j.jmmm.2019.01.081,Zn1Fe2O4,,5.000,0.154,0.000,1.691,12.200,0.000,0.000,0.000,0.000,815.100,0.355,44.000
https://doi.org/10.1016/j.jmmm.2019.01.081,Zn1Fe2O4,,5.000,0.090,0.000,1.691,11.000,0.000,0.000,0.000,0.000,62.700,0.355,1.300
https://doi.org/10.1016/j.jmmm.2019.01.081,Zn1Fe2O4,,5.000,0.090,0.000,1.691,11.000,0.000,0.000,0.000,0.000,125.400,0.355,11.000
https://doi.org/10.1016/j.jmmm.2019.01.081,Zn1Fe2O4,,5.000,0.090,0.000,1.691,11.000,0.000,0.000,0.000,0.000,188.100,0.355,18.800
https://doi.org/10.1016/j.jmmm.2019.01.081,Zn1Fe2O4,,5.000,0.090,0.000,1.691,11.000,0.000,0.000,0.000,0.000,250.800,0.355,27.800
https://doi.org/10.1016/j.jmmm.2019.01.081,Zn1Fe2O4,,5.000,0.090,0.000,1.691,11.000,0.000,0.000,0.000,0.000,313.500,0.355,43.300
https://doi.org/10.1016/j.jmmm.2019.01.081,Zn1Fe2O4,,5.000,0.090,0.000,1.691,11.000,0.000,0.000,0.000,0.000,376.200,0.355,50.200
https://doi.org/10.1016/j.jmmm.2019.01.081,Zn1Fe2O4,,5.000,0.090,0.000,1.691,11.000,0.000,0.000,0.000,0.000,438.900,0.355,56.200
https://doi.org/10.1016/j.jmmm.2019.01.081,Zn1Fe2O4,,5.000,0.090,0.000,1.691,11.000,0.000,0.000,0.000,0.000,501.600,0.355,69.700
https://doi.org/10.1016/j.jmmm.2019.01.081,Zn1Fe2O4,,5.000,0.090,0.000,1.691,11.000,0.000,0.000,0.000,0.000,564.300,0.355,84.000
https://doi.org/10.1016/j.jmmm.2019.01.081,Zn1Fe2O4,,5.000,0.090,0.000,1.691,11.000,0.000,0.000,0.000,0.000,627.000,0.355,87.800
https://doi.org/10.1016/j.jmmm.2019.01.081,Zn1Fe2O4,,5.000,0.090,0.000,1.691,11.000,0.000,0.000,0.000,0.000,689.700,0.355,104.500
https://doi.org/10.1016/j.jmmm.2019.01.081,Zn1Fe2O4,,5.000,0.090,0.000,1.691,11.000,0.000,0.000,0.000,0.000,752.400,0.355,117.500
https://doi.org/10.1016/j.jmmm.2019.01.081,Zn1Fe2O4,,5.000,0.090,0.000,1.691,11.000,0.000,0.000,0.000,0.000,815.100,0.355,122.700
https://doi.org/10.1021/acsami.8b22600,Co1Fe2O4,N-(trimethoxysilylpropyl)-ethylenediaminetriacetate,1.000,0.150,0.000,2.246,76.000,0.800,43.000,-2.850,8.000,62.700,0.195,9.800
https://doi.org/10.1021/acsami.8b22600,Co1Fe2O4,N-(trimethoxysilylpropyl)-ethylenediaminetriacetate,1.000,0.150,0.000,2.246,76.000,0.800,43.000,-2.850,8.000,313.500,0.195,31.300
https://doi.org/10.1021/acsami.8b22600,Co1Fe2O4,N-(trimethoxysilylpropyl)-ethylenediaminetriacetate,1.000,0.150,0.000,2.246,76.000,0.800,43.000,-2.850,8.000,627.000,0.195,164.300
https://doi.org/10.1021/acsami.8b22600,Co1Fe2O4,N-(trimethoxysilylpropyl)-ethylenediaminetriacetate,2.000,0.150,0.000,2.246,76.000,0.800,43.000,-2.850,8.000,62.700,0.195,42.000
https://doi.org/10.1021/acsami.8b22600,Co1Fe2O4,N-(trimethoxysilylpropyl)-ethylenediaminetriacetate,2.000,0.150,0.000,2.246,76.000,0.800,43.000,-2.850,8.000,313.500,0.195,102.700
https://doi.org/10.1021/acsami.8b22600,Co1Fe2O4,N-(trimethoxysilylpropyl)-ethylenediaminetriacetate,2.000,0.150,0.000,2.246,76.000,0.800,43.000,-2.850,8.000,627.000,0.195,311.600
https://doi.org/10.1021/acsami.8b22600,Mn1Fe2O4,N-(trimethoxysilylpropyl)-ethylenediaminetriacetate,1.000,0.150,0.000,2.537,75.000,0.250,20.000,-2.850,8.000,62.700,0.195,82.100
https://doi.org/10.1021/acsami.8b22600,Mn1Fe2O4,N-(trimethoxysilylpropyl)-ethylenediaminetriacetate,1.000,0.150,0.000,2.537,75.000,0.250,20.000,-2.850,8.000,313.500,0.195,165.200
https://doi.org/10.1021/acsami.8b22600,Mn1Fe2O4,N-(trimethoxysilylpropyl)-ethylenediaminetriacetate,1.000,0.150,0.000,2.537,75.000,0.250,20.000,-2.850,8.000,627.000,0.195,292.000
https://doi.org/10.1021/acsami.8b22600,Mn1Fe2O4,N-(trimethoxysilylpropyl)-ethylenediaminetriacetate,2.000,0.150,0.000,2.537,75.000,0.250,20.000,-2.850,8.000,62.700,0.195,76.800
https://doi.org/10.1021/acsami.8b22600,Mn1Fe2O4,N-(trimethoxysilylpropyl)-ethylenediaminetriacetate,2.000,0.150,0.000,2.537,75.000,0.250,20.000,-2.850,8.000,313.500,0.195,146.400
https://doi.org/10.1021/acsami.8b22600,Mn1Fe2O4,N-(trimethoxysilylpropyl)-ethylenediaminetriacetate,2.000,0.150,0.000,2.537,75.000,0.250,20.000,-2.850,8.000,627.000,0.195,210.700
https://doi.org/10.1021/acsami.8b22600,Ni1Fe2O4,N-(trimethoxysilylpropyl)-ethylenediaminetriacetate,1.000,0.150,0.000,2.096,68.000,0.280,25.000,-2.850,8.000,62.700,0.195,128.600
https://doi.org/10.1021/acsami.8b22600,Ni1Fe2O4,N-(trimethoxysilylpropyl)-ethylenediaminetriacetate,1.000,0.150,0.000,2.096,68.000,0.280,25.000,-2.850,8.000,313.500,0.195,167.900
https://doi.org/10.1021/acsami.8b22600,Ni1Fe2O4,N-(trimethoxysilylpropyl)-ethylenediaminetriacetate,1.000,0.150,0.000,2.096,68.000,0.280,25.000,-2.850,8.000,627.000,0.195,293.800
https://doi.org/10.1021/acsami.8b22600,Ni1Fe2O4,N-(trimethoxysilylpropyl)-ethylenediaminetriacetate,2.000,0.150,0.000,2.096,68.000,0.280,25.000,-2.850,8.000,62.700,0.195,88.400
https://doi.org/10.1021/acsami.8b22600,Ni1Fe2O4,N-(trimethoxysilylpropyl)-ethylenediaminetriacetate,2.000,0.150,0.000,2.096,68.000,0.280,25.000,-2.850,8.000,313.500,0.195,150.000
https://doi.org/10.1021/acsami.8b22600,Ni1Fe2O4,N-(trimethoxysilylpropyl)-ethylenediaminetriacetate,2.000,0.150,0.000,2.096,68.000,0.280,25.000,-2.850,8.000,627.000,0.195,188.400
https://doi.org/10.1016/j.jallcom.2019.152548,Fe1Fe2O4,triethylene glycol,15.000,0.162,0.000,2.391,58.800,7.500,0.600,-0.996,4.000,238.300,0.120,18.500
https://doi.org/10.1016/j.jallcom.2019.152548,Cu1Fe2O4,triethylene glycol,15.000,0.151,0.000,1.939,53.100,4.000,0.500,-0.996,4.000,238.300,0.120,44.900
https://doi.org/10.1016/j.jallcom.2019.152548,Cu1Fe2O4,triethylene glycol,15.000,0.151,0.000,1.939,53.100,4.000,0.500,-0.996,4.000,200.600,0.120,38.000
https://doi.org/10.1016/j.jallcom.2019.152548,Cu1Fe2O4,triethylene glycol,15.000,0.151,0.000,1.939,53.100,4.000,0.500,-0.996,4.000,163.000,0.120,24.800
https://doi.org/10.1016/j.matchemphys.2021.124546,Ni0.6Zn0.35Fe0.05Fe2O4,citric acid,12.000,0.833,0.000,1.969,30.800,7.000,0.160,-1.248,4.000,200.000,0.519,32.800
https://doi.org/10.1016/j.matchemphys.2021.124546,Ni0.6Zn0.35Fe0.05Fe2O4,citric acid,12.000,0.833,0.000,1.969,30.800,7.000,0.160,-1.248,4.000,200.000,0.746,34.800
https://doi.org/10.1016/j.matchemphys.2021.124546,Ni0.6Zn0.35Fe0.05Fe2O4,citric acid,12.000,0.681,0.000,1.969,36.300,27.000,0.770,-1.248,4.000,200.000,0.519,43.600
https://doi.org/10.1016/j.matchemphys.2021.124546,Ni0.6Zn0.35Fe0.05Fe2O4,citric acid,12.000,0.681,0.000,1.969,36.300,27.000,0.770,-1.248,4.000,200.000,0.746,123.800
https://doi.org/10.1021/acsabm.1c00040,Fe1Fe2O4,oleic acid,0.100,0.073,1.000,2.391,86.400,120.000,20.000,6.109,1.000,600.000,0.400,3955.000
https://doi.org/10.1021/acsabm.1c00040,Fe1Fe2O4,oleic acid,0.100,0.073,1.000,2.391,86.400,120.000,20.000,6.109,1.000,400.000,0.400,3499.000
https://doi.org/10.1021/acsabm.1c00040,Fe1Fe2O4,oleic acid,0.100,0.073,1.000,2.391,86.400,120.000,20.000,6.109,1.000,200.000,0.400,2470.000
https://doi.org/10.1021/acsabm.1c00040,Fe1Fe2O4,oleic acid,0.100,0.073,1.000,2.391,86.400,120.000,20.000,6.109,1.000,800.000,0.400,4214.000
https://doi.org/10.1021/acsabm.1c00040,Fe1Fe2O4,oleic acid,0.100,0.073,1.000,2.391,86.400,120.000,20.000,6.109,1.000,800.000,0.340,3225.000
https://doi.org/10.1021/acsabm.1c00040,Fe1Fe2O4,oleic acid,0.100,0.073,1.000,2.391,86.400,120.000,20.000,6.109,1.000,600.000,0.340,2485.000
https://doi.org/10.1021/acsabm.1c00040,Fe1Fe2O4,oleic acid,0.100,0.073,1.000,2.391,86.400,120.000,20.000,6.109,1.000,400.000,0.340,2273.000
https://doi.org/10.1021/acsabm.1c00040,Fe1Fe2O4,oleic acid,0.100,0.073,1.000,2.391,86.400,120.000,20.000,6.109,1.000,200.000,0.340,1464.000
https://doi.org/10.1021/acsabm.1c00040,Fe1Fe2O4,oleic acid,0.100,0.073,1.000,2.391,86.400,120.000,20.000,6.109,1.000,800.000,0.188,2240.000
https://doi.org/10.1021/acsabm.1c00040,Fe1Fe2O4,oleic acid,0.100,0.073,1.000,2.391,86.400,120.000,20.000,6.109,1.000,600.000,0.188,1930.000
https://doi.org/10.1021/acsabm.1c00040,Fe1Fe2O4,oleic acid,0.100,0.073,1.000,2.391,86.400,120.000,20.000,6.109,1.000,400.000,0.188,1220.000
https://doi.org/10.1021/acsabm.1c00040,Fe1Fe2O4,oleic acid,0.100,0.073,1.000,2.391,86.400,120.000,20.000,6.109,1.000,200.000,0.188,724.000
https://doi.org/10.1021/acsabm.1c00040,Fe1Fe2O4,oleic acid,0.100,0.057,1.000,2.391,83.200,200.000,22.000,6.109,1.000,600.000,0.400,3575.000
https://doi.org/10.1021/acsabm.1c00040,Fe1Fe2O4,oleic acid,0.100,0.057,1.000,2.391,83.200,200.000,22.000,6.109,1.000,400.000,0.400,3151.000
https://doi.org/10.1021/acsabm.1c00040,Fe1Fe2O4,oleic acid,0.100,0.045,1.000,2.391,84.700,200.000,22.000,6.109,1.000,600.000,0.400,3145.000
https://doi.org/10.1021/acsabm.1c00040,Fe1Fe2O4,oleic acid,0.100,0.045,1.000,2.391,84.700,200.000,22.000,6.109,1.000,400.000,0.400,2847.000
https://doi.org/10.1021/acsabm.1c00040,Fe1Fe2O4,oleic acid,0.100,0.040,1.000,2.391,82.400,203.000,28.000,6.109,1.000,600.000,0.400,2492.000
https://doi.org/10.1021/acsabm.1c00040,Fe1Fe2O4,oleic acid,0.100,0.040,1.000,2.391,82.400,203.000,28.000,6.109,1.000,400.000,0.400,1987.000
https://doi.org/10.1007/s10854-021-05946-y,Mn0.5Zn0.5Fe2O4,,4.000,0.187,0.000,2.114,41.120,0.880,8.150,0.000,0.000,50.000,0.280,110.900
https://doi.org/10.2217/nnm-2020-0467,Fe1Fe2O4,"meso-2,3-dimercaptosuccinic acid",2.400,0.199,0.000,2.391,89.600,0.000,0.000,-0.248,4.000,200.000,0.488,197.400
https://doi.org/10.3390/nano11030627,Fe1Fe2O4,,10.000,0.200,0.000,2.391,38.000,0.000,0.000,0.000,0.000,204.000,0.136,37.100
https://doi.org/10.3390/nano11030627,Fe1Fe2O4,,10.000,0.200,0.000,2.391,38.000,0.000,0.000,0.000,0.000,204.000,0.146,45.100
https://doi.org/10.3390/nano11030627,Fe1Fe2O4,,10.000,0.200,0.000,2.391,38.000,0.000,0.000,0.000,0.000,204.000,0.160,50.000
https://doi.org/10.3390/nano11030627,Fe1Fe2O4,,10.000,0.200,0.000,2.391,38.000,0.000,0.000,0.000,0.000,204.000,0.180,81.000
https://doi.org/10.3390/nano11030627,Fe1Fe2O4,,10.000,0.200,0.000,2.391,38.000,0.000,0.000,0.000,0.000,204.000,0.205,136.300
https://doi.org/10.3390/nano11030627,Fe1Fe2O4,,10.000,0.353,0.000,2.391,70.000,0.000,0.000,0.000,0.000,204.000,0.136,72.200
https://doi.org/10.3390/nano11030627,Fe1Fe2O4,,10.000,0.353,0.000,2.391,70.000,0.000,0.000,0.000,0.000,204.000,0.146,88.800
https://doi.org/10.3390/nano11030627,Fe1Fe2O4,,10.000,0.353,0.000,2.391,70.000,0.000,0.000,0.000,0.000,204.000,0.160,109.800
https://doi.org/10.3390/nano11030627,Fe1Fe2O4,,10.000,0.353,0.000,2.391,70.000,0.000,0.000,0.000,0.000,204.000,0.180,121.700
https://doi.org/10.3390/nano11030627,Fe1Fe2O4,,10.000,0.353,0.000,2.391,70.000,0.000,0.000,0.000,0.000,204.000,0.205,165.100
https://doi.org/10.3390/nano11030627,Fe1Fe2O4,,10.000,0.639,1.000,2.391,81.000,0.000,0.000,0.000,0.000,204.000,0.136,26.300
https://doi.org/10.3390/nano11030627,Fe1Fe2O4,,10.000,0.639,1.000,2.391,81.000,0.000,0.000,0.000,0.000,204.000,0.146,40.000
https://doi.org/10.3390/nano11030627,Fe1Fe2O4,,10.000,0.639,1.000,2.391,81.000,0.000,0.000,0.000,0.000,204.000,0.160,56.600
https://doi.org/10.3390/nano11030627,Fe1Fe2O4,,10.000,0.639,1.000,2.391,81.000,0.000,0.000,0.000,0.000,204.000,0.180,67.100
https://doi.org/10.3390/nano11030627,Fe1Fe2O4,,10.000,0.639,1.000,2.391,81.000,0.000,0.000,0.000,0.000,204.000,0.205,71.000
10.1007/s10856-015-5466-7,Zn1Fe2O4,,20.000,0.300,0.000,1.691,41.060,67.300,0.620,0.000,0.000,251.400,0.280,14.100
10.1007/s10856-015-5466-7,Zn1Fe2O4,,20.000,0.300,0.000,1.691,41.060,67.300,0.620,0.000,0.000,335.200,0.280,42.260
10.1007/s10856-015-5466-7,Zn1Fe2O4,,20.000,0.300,0.000,1.691,41.060,67.300,0.620,0.000,0.000,419.000,0.280,28.190
10.1007/s10856-015-5466-7,Co1Fe2O4,,20.000,0.750,0.000,2.246,48.010,123.800,0.720,0.000,0.000,251.400,0.280,14.100
10.1007/s10856-015-5466-7,Co1Fe2O4,,20.000,0.750,0.000,2.246,48.010,123.800,0.720,0.000,0.000,335.200,0.280,21.140
10.1007/s10856-015-5466-7,Co1Fe2O4,,20.000,0.750,0.000,2.246,48.010,123.800,0.720,0.000,0.000,419.000,0.280,35.240
10.1039/c4tb00061g,Fe1Fe2O4,GA(Gallic Acid)-PEG,6.000,0.430,0.000,2.391,74.000,152.000,17.067,0.502,4.000,217.880,0.247,290.720
10.1039/c4tb00061g,Fe1Fe2O4,GA(Gallic Acid)-PEG,6.000,0.170,0.000,2.391,98.000,226.000,26.000,0.502,4.000,251.370,0.180,430.240
10.1039/c4tb00061g,Fe1Fe2O4,GA(Gallic Acid)-PEG,6.000,0.430,0.000,2.391,64.000,26.000,3.373,0.502,4.000,150.840,0.110,120.000
10.1039/c4tb00061g,Fe1Fe2O4,GA(Gallic Acid)-PEG,6.000,0.320,0.000,2.391,73.000,28.000,2.367,0.502,4.000,150.840,0.110,146.340
10.1039/c4tb00061g,Fe1Fe2O4,GA(Gallic Acid)-PEG,6.000,0.250,0.000,2.391,75.000,7.000,2.367,0.502,4.000,150.840,0.110,179.250
10.1039/c4tb00061g,Fe1Fe2O4,GA(Gallic Acid)-PEG,6.000,0.170,0.000,2.391,88.000,23.000,0.000,0.502,4.000,202.380,0.110,42.310
10.1039/c4tb00061g,Fe1Fe2O4,GA(Gallic Acid)-PEG,6.000,0.170,0.000,2.391,88.000,23.000,3.780,0.502,4.000,304.190,0.110,384.600
10.1039/c4tb00061g,Fe1Fe2O4,GA(Gallic Acid)-PEG,6.000,0.170,0.000,2.391,88.000,23.000,2.513,0.502,4.000,400.980,0.110,473.100
10.1039/c4tb00061g,Fe1Fe2O4,GA(Gallic Acid)-PEG,6.000,0.430,0.000,2.391,64.000,26.000,2.240,0.502,4.000,252.660,0.110,130.800
10.1039/c4tb00061g,Fe1Fe2O4,GA(Gallic Acid)-PEG,6.000,0.430,0.000,2.391,64.000,26.000,10.573,0.502,4.000,304.190,0.110,151.850
10.1039/c4tb00061g,Fe1Fe2O4,GA(Gallic Acid)-PEG,6.000,0.320,0.000,2.391,73.000,28.000,2.507,0.502,4.000,202.380,0.110,204.880
10.1039/c4tb00061g,Fe1Fe2O4,GA(Gallic Acid)-PEG,6.000,0.320,0.000,2.391,73.000,28.000,2.513,0.502,4.000,252.660,0.110,254.270
10.1039/c4tb00061g,Fe1Fe2O4,GA(Gallic Acid)-PEG,6.000,0.320,0.000,2.391,73.000,28.000,0.180,0.502,4.000,400.980,0.110,310.980
10.1039/c4tb00061g,Fe1Fe2O4,GA(Gallic Acid)-PEG,6.000,0.430,0.000,2.391,64.000,26.000,1.173,0.502,4.000,150.840,0.220,200.000
10.1039/c4tb00061g,Fe1Fe2O4,GA(Gallic Acid)-PEG,6.000,0.320,0.000,2.391,73.000,28.000,1.870,0.502,4.000,150.840,0.220,321.570
10.1039/c4tb00061g,Fe1Fe2O4,GA(Gallic Acid)-PEG,6.000,0.320,0.000,2.391,73.000,28.000,0.180,0.502,4.000,304.190,0.220,639.220
10.1039/c4tb00061g,Fe1Fe2O4,GA(Gallic Acid)-PEG,6.000,0.250,0.000,2.391,75.000,7.000,0.180,0.502,4.000,252.660,0.220,680.270
10.1039/c4tb00061g,Fe1Fe2O4,GA(Gallic Acid)-PEG,6.000,0.250,0.000,2.391,75.000,7.000,0.180,0.502,4.000,304.190,0.220,780.950
10.1039/c4tb00061g,Fe1Fe2O4,GA(Gallic Acid)-PEG,6.000,0.170,0.000,2.391,88.000,23.000,0.000,0.502,4.000,150.840,0.220,42.860
10.1039/c4tb00061g,Fe1Fe2O4,GA(Gallic Acid)-PEG,6.000,0.170,0.000,2.391,88.000,23.000,4.847,0.502,4.000,304.200,0.220,1066.700
10.1039/c4tb00061g,Fe1Fe2O4,GA(Gallic Acid)-PEG,6.000,0.170,0.000,2.391,88.000,23.000,3.140,0.502,4.000,202.380,0.300,276.000
10.1039/c4tb00061g,Fe1Fe2O4,GA(Gallic Acid)-PEG,6.000,0.170,0.000,2.391,88.000,23.000,0.180,0.502,4.000,252.660,0.300,672.000
10.1039/c4tb00061g,Fe1Fe2O4,GA(Gallic Acid)-PEG,6.000,0.170,0.000,2.391,88.000,23.000,0.180,0.502,4.000,304.190,0.300,1352.000
10.1039/c4tb00061g,Fe1Fe2O4,GA(Gallic Acid)-PEG,6.000,0.250,0.000,2.391,75.000,7.000,0.537,0.502,4.000,202.380,0.300,644.000
10.1039/c4tb00061g,Fe1Fe2O4,GA(Gallic Acid)-PEG,6.000,0.320,0.000,2.391,73.000,28.000,0.173,0.502,4.000,202.380,0.300,630.000
10.1039/c4tb00061g,Fe1Fe2O4,GA(Gallic Acid)-PEG,6.000,0.320,0.000,2.391,73.000,28.000,0.180,0.502,4.000,252.660,0.300,740.000
10.1039/c4tb00061g,Fe1Fe2O4,GA(Gallic Acid)-PEG,6.000,0.430,0.000,2.391,64.000,26.000,0.620,0.502,4.000,150.840,0.300,316.000
10.1039/c4tb00061g,Fe1Fe2O4,GA(Gallic Acid)-PEG,6.000,0.430,0.000,2.391,64.000,26.000,0.627,0.502,4.000,202.380,0.300,376.000
10.1007/s10856-015-5466-7,Ni1Fe2O4,,20.000,0.430,0.000,2.096,17.490,20.040,0.020,0.000,0.000,201.120,0.273,213.057
10.1007/s10856-015-5466-7,Mn1Fe2O4,,20.000,0.430,0.000,2.537,51.990,44.520,0.520,0.000,0.000,217.880,0.247,280.410
10.1039/c6nr01303a,Co1Fe2O4,,4.000,0.400,0.000,2.246,92.000,0.000,0.000,0.000,0.000,213.600,0.180,19.000
10.1039/c6nr01303a,Zn0.30Co0.70Fe2.00O4,,4.000,0.420,0.000,2.079,94.000,0.000,0.000,0.000,0.000,213.600,0.180,6.000
dx.doi.org/10.1021/nl302160d,Fe2.2C1Fe5C2,,24.000,0.230,0.000,2.554,132.000,0.000,0.000,0.000,0.000,203.640,0.050,6.960
dx.doi.org/10.1021/nl302160d,Fe2.2C1Fe5C2,,24.000,0.230,0.000,2.554,132.000,0.000,0.000,0.000,0.000,251.820,0.050,8.700
dx.doi.org/10.1021/nl302160d,Fe2.2C1Fe5C2,,24.000,0.230,0.000,2.554,132.000,0.000,0.000,0.000,0.000,337.270,0.050,71.740
dx.doi.org/10.1021/nl302160d,Fe2.2C1Fe5C2,,24.000,0.230,0.000,2.554,132.000,0.000,0.000,0.000,0.000,429.090,0.050,104.350
dx.doi.org/10.1021/nl302160d,Fe2.2C1Fe5C2,,24.000,0.230,0.000,2.554,132.000,0.000,0.000,0.000,0.000,504.550,0.050,172.610
dx.doi.org/10.1021/nl302160d,Fe2.2C1Fe5C2,,24.000,0.230,0.000,2.554,132.000,0.000,0.000,0.000,0.000,593.640,0.050,293.910
10.1021/nn2048137,Fe1Fe2O4,poly- (maleic anhydride alt-1-octadecene),1.000,0.320,0.000,2.391,82.000,400.000,34.000,6.670,3.000,294.000,0.573,636.573
10.1021/nn2048137,Fe1Fe2O4,poly- (maleic anhydride alt-1-octadecene),1.000,0.320,0.000,2.391,73.800,0.000,0.000,6.670,3.000,100.000,0.320,125.000
10.1021/nn2048137,Fe1Fe2O4,poly- (maleic anhydride alt-1-octadecene),1.000,0.320,0.000,2.391,73.800,0.000,0.000,6.670,3.000,151.200,0.320,331.520
10.1021/nn2048137,Fe1Fe2O4,poly- (maleic anhydride alt-1-octadecene),1.000,0.320,0.000,2.391,73.800,0.000,0.000,6.670,3.000,187.700,0.320,536.300
10.1021/nn2048137,Fe1Fe2O4,poly- (maleic anhydride alt-1-octadecene),1.000,0.320,0.000,2.391,73.800,0.000,0.000,6.670,3.000,226.800,0.320,750.000
10.1021/nn2048137,Fe1Fe2O4,poly- (maleic anhydride alt-1-octadecene),1.000,0.320,0.000,2.391,73.800,0.000,0.000,6.670,3.000,277.200,0.320,934.800
10.1021/nn2048137,Fe1Fe2O4,poly- (maleic anhydride alt-1-octadecene),1.000,0.320,0.000,2.391,73.800,0.000,0.000,6.670,3.000,126.000,0.520,236.260