DOI,Core composition,Shell composition,Concentration of particles,Area/volume,Max/min(size),Magnetic moment of core,Saturation magnetization,Coercivity,Remanence magnetization,LogP of organic coating,Number H acceptors of organic coating,Field amplitude,Field frequency,SAR
10.1021/nn2048137,Fe1Fe2O4,poly- (maleic anhydride alt-1-octadecene),1.000,0.320,0.000,2.391,73.800,0.000,0.000,6.670,3.000,187.400,0.520,604.400
10.1021/nn2048137,Fe1Fe2O4,poly- (maleic anhydride alt-1-octadecene),1.000,0.320,0.000,2.391,73.800,0.000,0.000,6.670,3.000,226.800,0.520,1164.840
10.1021/nn2048137,Fe1Fe2O4,poly- (maleic anhydride alt-1-octadecene),1.000,0.320,0.000,2.391,73.800,0.000,0.000,6.670,3.000,277.200,0.520,1412.090
10.1021/nn2048137,Fe1Fe2O4,poly- (maleic anhydride alt-1-octadecene),1.000,0.320,0.000,2.391,73.800,0.000,0.000,6.670,3.000,302.400,0.520,1967.030
10.1021/nn2048137,Fe1Fe2O4,poly- (maleic anhydride alt-1-octadecene),1.000,0.320,0.000,2.391,73.800,0.000,0.000,6.670,3.000,365.400,0.520,2450.550
10.1021/nn2048137,Fe1Fe2O4,poly- (maleic anhydride alt-1-octadecene),1.000,0.320,0.000,2.391,73.800,0.000,0.000,6.670,3.000,88.000,0.700,150.000
10.1021/nn2048137,Fe1Fe2O4,poly- (maleic anhydride alt-1-octadecene),1.000,0.320,0.000,2.391,73.800,0.000,0.000,6.670,3.000,163.800,0.700,650.000
10.1021/nn2048137,Fe1Fe2O4,poly- (maleic anhydride alt-1-octadecene),1.000,0.320,0.000,2.391,73.800,0.000,0.000,6.670,3.000,226.800,0.700,1286.840
10.1021/nn2048137,Fe1Fe2O4,poly- (maleic anhydride alt-1-octadecene),1.000,0.320,0.000,2.391,73.800,0.000,0.000,6.670,3.000,264.600,0.700,1681.580
10.1021/nn2048137,Fe1Fe2O4,poly- (maleic anhydride alt-1-octadecene),1.000,0.320,0.000,2.391,73.800,0.000,0.000,6.670,3.000,302.400,0.700,2202.630
10.1021/nn2048137,Fe1Fe2O4,poly- (maleic anhydride alt-1-octadecene),1.000,0.500,0.000,2.391,66.277,404.667,20.847,6.670,3.000,189.000,0.320,36.360
10.1021/nn2048137,Fe1Fe2O4,poly- (maleic anhydride alt-1-octadecene),1.000,0.500,0.000,2.391,66.277,404.667,20.847,6.670,3.000,226.800,0.320,38.960
10.1021/nn2048137,Fe1Fe2O4,poly- (maleic anhydride alt-1-octadecene),1.000,0.500,0.000,2.391,66.277,404.667,20.847,6.670,3.000,226.800,0.520,113.600
10.1021/nn2048137,Fe1Fe2O4,poly- (maleic anhydride alt-1-octadecene),1.000,0.500,0.000,2.391,66.277,404.667,20.847,6.670,3.000,264.600,0.700,192.310
10.1021/nn2048137,Fe1Fe2O4,poly- (maleic anhydride alt-1-octadecene),1.000,0.500,0.000,2.391,66.277,404.667,20.847,6.670,3.000,302.400,0.700,308.970
10.1021/nn2048137,Fe1Fe2O4,poly- (maleic anhydride alt-1-octadecene),1.000,0.500,0.000,2.391,66.277,404.667,20.847,6.670,3.000,277.200,0.320,496.270
10.1021/nn2048137,Fe1Fe2O4,poly- (maleic anhydride alt-1-octadecene),1.000,0.500,0.000,2.391,66.277,404.667,20.847,6.670,3.000,189.000,0.520,283.580
10.1021/nn2048137,Fe1Fe2O4,poly- (maleic anhydride alt-1-octadecene),1.000,0.500,0.000,2.391,66.277,404.667,20.847,6.670,3.000,365.400,0.520,1667.910
10.1021/nn2048137,Fe1Fe2O4,poly- (maleic anhydride alt-1-octadecene),1.000,0.500,0.000,2.391,66.277,404.667,20.847,6.670,3.000,88.000,0.700,67.160
10.1021/nn2048137,Fe1Fe2O4,poly- (maleic anhydride alt-1-octadecene),1.000,0.500,0.000,2.391,66.277,404.667,20.847,6.670,3.000,226.800,0.700,727.610
10.1021/nn2048137,Fe1Fe2O4,poly- (maleic anhydride alt-1-octadecene),1.000,0.500,0.000,2.391,66.277,404.667,20.847,6.670,3.000,264.600,0.700,910.450
10.1021/nn2048137,Fe1Fe2O4,poly- (maleic anhydride alt-1-octadecene),1.000,0.500,0.000,2.391,66.277,404.667,20.847,6.670,3.000,302.400,0.700,1104.480
10.1021/nn2048137,Fe1Fe2O4,poly- (maleic anhydride alt-1-octadecene),1.000,0.110,0.000,2.391,72.167,1.848,28.933,6.670,3.000,151.200,0.320,5.750
10.1021/nn2048137,Fe1Fe2O4,poly- (maleic anhydride alt-1-octadecene),1.000,0.110,0.000,2.391,72.167,1.848,28.933,6.670,3.000,189.000,0.320,7.850
10.1021/nn2048137,Fe1Fe2O4,poly- (maleic anhydride alt-1-octadecene),1.000,0.110,0.000,2.391,72.167,1.848,28.933,6.670,3.000,226.800,0.320,38.900
10.1021/nn2048137,Fe1Fe2O4,poly- (maleic anhydride alt-1-octadecene),1.000,0.110,0.000,2.391,72.167,1.848,28.933,6.670,3.000,126.000,0.520,7.470
10.1021/nn2048137,Fe1Fe2O4,poly- (maleic anhydride alt-1-octadecene),1.000,0.110,0.000,2.391,72.167,1.848,28.933,6.670,3.000,189.000,0.520,62.640
10.1021/nn2048137,Fe1Fe2O4,poly- (maleic anhydride alt-1-octadecene),1.000,0.110,0.000,2.391,72.167,1.848,28.933,6.670,3.000,226.800,0.700,211.490
10.1021/nn2048137,Fe1Fe2O4,poly- (maleic anhydride alt-1-octadecene),1.000,0.110,0.000,2.391,72.167,1.848,28.933,6.670,3.000,302.400,0.700,352.870
http://dx.doi.org/10.1021/acs.chemmater.5b04780,Co1Fe2O4,decanoic acid,5.000,0.400,0.000,2.246,47.900,10.000,40.000,3.212,1.000,201.120,0.300,213.743
http://dx.doi.org/10.1021/acs.chemmater.5b04780,Co0.5Fe0.5Fe2O4,decanoic acid,5.000,0.300,0.000,2.319,73.750,13.580,49.200,3.212,1.000,234.640,0.220,358.073
http://dx.doi.org/10.1021/acs.chemmater.5b04780,Co0.5Fe0.5Fe2O4,decanoic acid,5.000,0.147,0.000,2.319,40.000,2.545,30.000,3.212,1.000,150.800,0.100,74.750
http://dx.doi.org/10.1021/acs.chemmater.5b04780,Co0.5Fe0.5Fe2O4,decanoic acid,5.000,0.300,0.000,2.319,60.000,2.545,30.000,3.212,1.000,201.060,0.100,157.580
http://dx.doi.org/10.1021/acs.chemmater.5b04780,Co0.5Fe0.5Fe2O4,decanoic acid,5.000,0.300,0.000,2.319,60.000,2.545,30.000,3.212,1.000,301.590,0.100,391.920
http://dx.doi.org/10.1021/acs.chemmater.5b04780,Co0.5Fe0.5Fe2O4,decanoic acid,5.000,0.300,0.000,2.319,60.000,2.545,30.000,3.212,1.000,402.120,0.100,678.790
http://dx.doi.org/10.1021/acs.chemmater.5b04780,Co0.5Fe0.5Fe2O4,decanoic acid,5.000,0.300,0.000,2.319,60.000,2.545,30.000,3.212,1.000,150.800,0.220,146.940
http://dx.doi.org/10.1021/acs.chemmater.5b04780,Co0.5Fe0.5Fe2O4,decanoic acid,5.000,0.300,0.000,2.319,60.000,2.545,30.000,3.212,1.000,201.060,0.220,279.000
http://dx.doi.org/10.1021/acs.chemmater.5b04780,Co0.5Fe0.5Fe2O4,decanoic acid,5.000,0.300,0.000,2.319,60.000,2.545,30.000,3.212,1.000,251.330,0.220,453.060
http://dx.doi.org/10.1021/acs.chemmater.5b04780,Co0.5Fe0.5Fe2O4,decanoic acid,5.000,0.300,0.000,2.319,60.000,2.545,30.000,3.212,1.000,301.590,0.220,628.570
http://dx.doi.org/10.1021/acs.chemmater.5b04780,Co0.5Fe0.5Fe2O4,decanoic acid,5.000,0.300,0.000,2.319,60.000,2.545,30.000,3.212,1.000,150.800,0.300,122.450
http://dx.doi.org/10.1021/acs.chemmater.5b04780,Co0.5Fe0.5Fe2O4,decanoic acid,5.000,0.300,0.000,2.319,60.000,2.545,30.000,3.212,1.000,201.060,0.300,246.940
http://dx.doi.org/10.1021/acs.chemmater.5b04780,Co0.5Fe0.5Fe2O4,decanoic acid,5.000,0.300,0.000,2.319,60.000,2.545,30.000,3.212,1.000,251.330,0.300,416.330
http://dx.doi.org/10.1021/acs.chemmater.5b04780,Co0.7Fe0.3Fe2O4,decanoic acid,5.000,0.220,0.000,2.289,60.000,7.360,40.000,3.212,1.000,234.640,0.247,358.760
http://dx.doi.org/10.1021/acs.chemmater.5b04780,Co0.7Fe0.3Fe2O4,decanoic acid,5.000,0.220,0.000,2.289,70.000,400.000,20.000,3.212,1.000,150.800,0.100,68.000
http://dx.doi.org/10.1021/acs.chemmater.5b04780,Co0.7Fe0.3Fe2O4,decanoic acid,5.000,0.220,0.000,2.289,70.000,400.000,20.000,3.212,1.000,201.060,0.100,134.000
http://dx.doi.org/10.1021/acs.chemmater.5b04780,Co0.7Fe0.3Fe2O4,decanoic acid,5.000,0.220,0.000,2.289,70.000,400.000,20.000,3.212,1.000,251.330,0.100,220.000
http://dx.doi.org/10.1021/acs.chemmater.5b04780,Co0.7Fe0.3Fe2O4,decanoic acid,5.000,0.220,0.000,2.289,70.000,400.000,20.000,3.212,1.000,301.590,0.100,290.000
http://dx.doi.org/10.1021/acs.chemmater.5b04780,Co0.7Fe0.3Fe2O4,decanoic acid,5.000,0.220,0.000,2.289,70.000,400.000,20.000,3.212,1.000,402.120,0.100,428.000
http://dx.doi.org/10.1021/acs.chemmater.5b04780,Co0.7Fe0.3Fe2O4,decanoic acid,5.000,0.320,0.000,2.289,49.000,300.000,15.000,3.212,1.000,150.840,0.100,153.530
http://dx.doi.org/10.1021/acs.chemmater.5b04780,Co0.7Fe0.3Fe2O4,decanoic acid,5.000,0.320,0.000,2.289,49.000,300.000,15.000,3.212,1.000,201.120,0.100,276.770
http://dx.doi.org/10.1021/acs.chemmater.5b04780,Co0.7Fe0.3Fe2O4,decanoic acid,5.000,0.320,0.000,2.289,49.000,300.000,15.000,3.212,1.000,251.400,0.100,426.260
http://dx.doi.org/10.1021/acs.chemmater.5b04780,Co0.7Fe0.3Fe2O4,decanoic acid,5.000,0.320,0.000,2.289,49.000,300.000,15.000,3.212,1.000,301.680,0.100,608.080
http://dx.doi.org/10.1021/acs.chemmater.5b04780,Co0.7Fe0.3Fe2O4,decanoic acid,5.000,0.320,0.000,2.289,49.000,300.000,15.000,3.212,1.000,402.240,0.100,915.150
http://dx.doi.org/10.1021/acs.chemmater.5b04780,Co0.7Fe0.3Fe2O4,decanoic acid,5.000,0.260,0.000,2.289,53.000,400.000,20.000,3.212,1.000,150.840,0.100,59.410
http://dx.doi.org/10.1021/acs.chemmater.5b04780,Co0.7Fe0.3Fe2O4,decanoic acid,5.000,0.260,0.000,2.289,53.000,400.000,20.000,3.212,1.000,201.120,0.100,97.030
http://dx.doi.org/10.1021/acs.chemmater.5b04780,Co0.7Fe0.3Fe2O4,decanoic acid,5.000,0.260,0.000,2.289,53.000,400.000,20.000,3.212,1.000,301.680,0.100,196.040
http://dx.doi.org/10.1021/acs.chemmater.5b04780,Co0.7Fe0.3Fe2O4,decanoic acid,5.000,0.260,0.000,2.289,53.000,400.000,20.000,3.212,1.000,402.240,0.100,322.770
http://dx.doi.org/10.1021/acs.chemmater.5b04780,Co0.7Fe0.3Fe2O4,decanoic acid,5.000,0.300,0.000,2.289,48.000,300.000,15.400,3.212,1.000,150.840,0.100,158.000
http://dx.doi.org/10.1021/acs.chemmater.5b04780,Co0.7Fe0.3Fe2O4,decanoic acid,5.000,0.300,0.000,2.289,48.000,300.000,15.400,3.212,1.000,201.120,0.100,274.000
http://dx.doi.org/10.1021/acs.chemmater.5b04780,Co0.7Fe0.3Fe2O4,decanoic acid,5.000,0.300,0.000,2.289,48.000,300.000,15.400,3.212,1.000,251.400,0.100,422.000
http://dx.doi.org/10.1021/acs.chemmater.5b04780,Co0.7Fe0.3Fe2O4,decanoic acid,5.000,0.300,0.000,2.289,48.000,300.000,15.400,3.212,1.000,301.680,0.100,600.000
http://dx.doi.org/10.1021/acs.chemmater.5b04780,Co0.7Fe0.3Fe2O4,decanoic acid,5.000,0.300,0.000,2.289,48.000,300.000,15.400,3.212,1.000,402.240,0.100,906.000
http://dx.doi.org/10.1021/acs.chemmater.5b04780,Co0.7Fe0.3Fe2O4,decanoic acid,5.000,0.220,0.000,2.289,70.000,400.000,20.000,3.212,1.000,201.063,0.100,140.667
http://dx.doi.org/10.1021/acs.chemmater.5b04780,Co0.7Fe0.3Fe2O4,decanoic acid,5.000,0.350,0.000,2.289,63.250,10.860,43.067,3.212,1.000,150.840,0.220,125.770
http://dx.doi.org/10.1021/acs.chemmater.5b04780,Co0.7Fe0.3Fe2O4,decanoic acid,5.000,0.350,0.000,2.289,63.250,10.860,43.067,3.212,1.000,251.400,0.220,383.500
http://dx.doi.org/10.1021/acs.chemmater.5b04780,Co0.7Fe0.3Fe2O4,decanoic acid,5.000,0.350,0.000,2.289,63.250,10.860,43.067,3.212,1.000,301.680,0.220,564.950
http://dx.doi.org/10.1021/acs.chemmater.5b04780,Co0.7Fe0.3Fe2O4,decanoic acid,5.000,0.350,0.000,2.289,63.250,10.860,43.067,3.212,1.000,150.840,0.300,127.830
http://dx.doi.org/10.1021/acs.chemmater.5b04780,Co0.7Fe0.3Fe2O4,decanoic acid,5.000,0.350,0.000,2.289,63.250,10.860,43.067,3.212,1.000,201.120,0.300,150.510
http://dx.doi.org/10.1021/acs.chemmater.5b04780,Co0.7Fe0.3Fe2O4,decanoic acid,5.000,0.350,0.000,2.289,63.250,10.860,43.067,3.212,1.000,251.400,0.300,362.890
http://dx.doi.org/10.1021/acs.chemmater.5b04780,Co0.1Fe0.9Fe2O4,decanoic acid,5.000,0.300,0.000,2.377,73.500,143.000,10.800,3.212,1.000,251.370,0.180,430.240
http://dx.doi.org/10.1021/acs.chemmater.5b04780,Co0.1Fe0.9Fe2O4,decanoic acid,5.000,0.300,0.000,2.377,86.200,9.100,69.000,3.212,1.000,201.120,0.300,213.743
http://dx.doi.org/10.1021/acs.chemmater.5b04780,Co0.3Fe0.7Fe2O4,decanoic acid,5.000,0.300,0.000,2.348,63.970,94.120,8.107,3.212,1.000,251.400,0.100,226.260
http://dx.doi.org/10.1021/acs.chemmater.5b04780,Co0.3Fe0.7Fe2O4,decanoic acid,5.000,0.300,0.000,2.348,63.970,94.120,6.107,3.212,1.000,402.240,0.100,563.640
http://dx.doi.org/10.1021/acs.jpcc.6b02006,Fe1Fe2O4,oleic acid- coated,1.000,0.330,1.000,2.391,91.320,0.000,0.000,6.109,1.000,100.000,0.310,8.000
http://dx.doi.org/10.1021/acs.jpcc.6b02006,Fe1Fe2O4,oleic acid- coated,1.000,0.330,1.000,2.391,91.320,0.000,0.000,6.109,1.000,200.000,0.310,8.000
http://dx.doi.org/10.1021/acs.jpcc.6b02006,Fe1Fe2O4,oleic acid- coated,1.000,0.330,1.000,2.391,91.320,0.000,0.000,6.109,1.000,300.000,0.310,32.000
http://dx.doi.org/10.1021/acs.jpcc.6b02006,Fe1Fe2O4,oleic acid- coated,1.000,0.330,1.000,2.391,91.320,0.000,0.000,6.109,1.000,400.000,0.310,154.670
http://dx.doi.org/10.1021/acs.jpcc.6b02006,Fe1Fe2O4,oleic acid- coated,1.000,0.330,1.000,2.391,91.320,0.000,0.000,6.109,1.000,500.000,0.310,185.780
http://dx.doi.org/10.1021/acs.jpcc.6b02006,Fe1Fe2O4,oleic acid- coated,1.000,0.330,1.000,2.391,91.320,0.000,0.000,6.109,1.000,600.000,0.310,331.560
http://dx.doi.org/10.1021/acs.jpcc.6b02006,Fe1Fe2O4,oleic acid- coated,1.000,0.330,1.000,2.391,91.320,0.000,0.000,6.109,1.000,700.000,0.310,392.890
http://dx.doi.org/10.1021/acs.jpcc.6b02006,Fe1Fe2O4,oleic acid- coated,1.000,0.330,1.000,2.391,91.320,0.000,0.000,6.109,1.000,800.000,0.310,552.000
http://dx.doi.org/10.1021/acs.jpcc.6b02006,Fe1Fe2O4,oleic acid- coated,1.000,0.380,1.000,2.391,88.300,0.000,0.000,6.109,1.000,200.000,0.310,14.470
http://dx.doi.org/10.1021/acs.jpcc.6b02006,Fe1Fe2O4,oleic acid- coated,1.000,0.380,1.000,2.391,88.300,0.000,0.000,6.109,1.000,400.000,0.310,204.600
http://dx.doi.org/10.1021/acs.jpcc.6b02006,Fe1Fe2O4,oleic acid- coated,1.000,0.380,1.000,2.391,88.300,0.000,0.000,6.109,1.000,500.000,0.310,489.610
http://dx.doi.org/10.1021/acs.jpcc.6b02006,Fe1Fe2O4,oleic acid- coated,1.000,0.380,1.000,2.391,88.300,0.000,0.000,6.109,1.000,700.000,0.310,754.610
http://dx.doi.org/10.1021/acs.jpcc.6b02006,Fe1Fe2O4,oleic acid- coated,1.000,0.380,1.000,2.391,88.300,0.000,0.000,6.109,1.000,800.000,0.310,857.890
http://dx.doi.org/10.1021/acs.jpcc.6b02006,Fe1Fe2O4,oleic acid- coated,1.000,0.380,1.000,2.391,88.300,0.000,0.000,6.109,1.000,152.750,0.150,9.430
http://dx.doi.org/10.1021/acs.jpcc.6b02006,Fe1Fe2O4,oleic acid- coated,1.000,0.380,1.000,2.391,88.300,0.000,0.000,6.109,1.000,171.430,0.150,14.980
http://dx.doi.org/10.1021/acs.jpcc.6b02006,Fe1Fe2O4,oleic acid- coated,1.000,0.380,1.000,2.391,88.300,0.000,0.000,6.109,1.000,192.310,0.150,22.000
http://dx.doi.org/10.1021/acs.jpcc.6b02006,Fe1Fe2O4,oleic acid- coated,1.000,0.380,1.000,2.391,88.300,0.000,0.000,6.109,1.000,212.090,0.150,30.920
http://dx.doi.org/10.1021/acs.jpcc.6b02006,Fe1Fe2O4,oleic acid- coated,1.000,0.380,1.000,2.391,88.300,0.000,0.000,6.109,1.000,231.870,0.150,41.300
http://dx.doi.org/10.1021/acs.jpcc.6b02006,Fe1Fe2O4,oleic acid- coated,1.000,0.380,1.000,2.391,88.300,0.000,0.000,6.109,1.000,254.940,0.150,53.730
http://dx.doi.org/10.1021/acs.jpcc.6b02006,Fe1Fe2O4,oleic acid- coated,1.000,0.380,1.000,2.391,88.300,0.000,0.000,6.109,1.000,300.000,0.150,80.340
http://dx.doi.org/10.1021/acs.jpcc.6b02006,Fe1Fe2O4,oleic acid- coated,1.000,0.380,1.000,2.391,88.300,0.000,0.000,6.109,1.000,323.630,0.150,102.480
http://dx.doi.org/10.1021/acs.jpcc.6b02006,Fe1Fe2O4,oleic acid- coated,1.000,0.380,1.000,2.391,88.300,0.000,0.000,6.109,1.000,347.250,0.150,118.570
http://dx.doi.org/10.1021/acs.jpcc.6b02006,Fe1Fe2O4,oleic acid- coated,1.000,0.380,1.000,2.391,88.300,0.000,0.000,6.109,1.000,370.330,0.150,131.140
http://dx.doi.org/10.1021/acs.jpcc.6b02006,Fe1Fe2O4,oleic acid- coated,1.000,0.380,1.000,2.391,88.300,0.000,0.000,6.109,1.000,386.810,0.150,139.620
http://dx.doi.org/10.1021/acs.jpcc.6b02006,Fe1Fe2O4,oleic acid- coated,1.000,0.380,1.000,2.391,88.300,0.000,0.000,6.109,1.000,396.150,0.150,143.570
http://dx.doi.org/10.1021/acs.jpcc.6b02006,Fe1Fe2O4,oleic acid- coated,1.000,0.380,1.000,2.391,88.300,0.000,0.000,6.109,1.000,412.090,0.150,153.660
http://dx.doi.org/10.1021/acs.jpcc.6b02006,Fe1Fe2O4,oleic acid- coated,1.000,0.380,1.000,2.391,88.300,0.000,0.000,6.109,1.000,414.830,0.150,159.060
http://dx.doi.org/10.1021/acs.jpcc.6b02006,Fe1Fe2O4,oleic acid- coated,1.000,0.380,1.000,2.391,88.300,0.000,0.000,6.109,1.000,418.130,0.150,161.110
http://dx.doi.org/10.1021/acs.jpcc.6b02006,Fe1Fe2O4,oleic acid- coated,1.000,0.330,1.000,2.391,91.320,0.000,0.000,6.109,1.000,140.330,0.150,3.450
http://dx.doi.org/10.1021/acs.jpcc.6b02006,Fe1Fe2O4,oleic acid- coated,1.000,0.330,1.000,2.391,91.320,0.000,0.000,6.109,1.000,160.220,0.150,13.360
http://dx.doi.org/10.1021/acs.jpcc.6b02006,Fe1Fe2O4,oleic acid- coated,1.000,0.330,1.000,2.391,91.320,0.000,0.000,6.109,1.000,178.450,0.150,17.670
http://dx.doi.org/10.1021/acs.jpcc.6b02006,Fe1Fe2O4,oleic acid- coated,1.000,0.330,1.000,2.391,91.320,0.000,0.000,6.109,1.000,197.280,0.150,26.290
http://dx.doi.org/10.1021/acs.jpcc.6b02006,Fe1Fe2O4,oleic acid- coated,1.000,0.330,1.000,2.391,91.320,0.000,0.000,6.109,1.000,218.780,0.150,34.910
http://dx.doi.org/10.1021/acs.jpcc.6b02006,Fe1Fe2O4,oleic acid- coated,1.000,0.330,1.000,2.391,91.320,0.000,0.000,6.109,1.000,235.910,0.150,44.830
http://dx.doi.org/10.1021/acs.jpcc.6b02006,Fe1Fe2O4,oleic acid- coated,1.000,0.330,1.000,2.391,91.320,0.000,0.000,6.109,1.000,254.700,0.150,56.470
http://dx.doi.org/10.1021/acs.jpcc.6b02006,Fe1Fe2O4,oleic acid- coated,1.000,0.330,1.000,2.391,91.320,0.000,0.000,6.109,1.000,290.610,0.150,82.760
http://dx.doi.org/10.1021/acs.jpcc.6b02006,Fe1Fe2O4,oleic acid- coated,1.000,0.330,1.000,2.391,91.320,0.000,0.000,6.109,1.000,309.390,0.150,94.400
http://dx.doi.org/10.1021/acs.jpcc.6b02006,Fe1Fe2O4,oleic acid- coated,1.000,0.330,1.000,2.391,91.320,0.000,0.000,6.109,1.000,325.410,0.150,106.030
http://dx.doi.org/10.1021/acs.jpcc.6b02006,Fe1Fe2O4,oleic acid- coated,1.000,0.330,1.000,2.391,91.320,0.000,0.000,6.109,1.000,343.650,0.150,117.670
http://dx.doi.org/10.1021/acs.jpcc.6b02006,Fe1Fe2O4,oleic acid- coated,1.000,0.330,1.000,2.391,91.320,0.000,0.000,6.109,1.000,361.880,0.150,128.020
http://dx.doi.org/10.1021/acs.jpcc.6b02006,Fe1Fe2O4,oleic acid- coated,1.000,0.330,1.000,2.391,91.320,0.000,0.000,6.109,1.000,374.030,0.150,134.480
http://dx.doi.org/10.1021/acs.jpcc.6b02006,Fe1Fe2O4,oleic acid- coated,1.000,0.330,1.000,2.391,91.320,0.000,0.000,6.109,1.000,382.870,0.150,141.810
http://dx.doi.org/10.1021/acs.jpcc.6b02006,Fe1Fe2O4,oleic acid- coated,1.000,0.330,1.000,2.391,91.320,0.000,0.000,6.109,1.000,390.610,0.150,142.240
http://dx.doi.org/10.1021/acs.jpcc.6b02006,Fe1Fe2O4,oleic acid- coated,1.000,0.330,1.000,2.391,91.320,0.000,0.000,6.109,1.000,400.550,0.150,149.140
10.1021/nn2048137,Fe1Fe2O4,poly- (maleic anhydride alt-1-octadecene),1.000,0.120,0.000,2.391,60.000,0.000,0.000,6.670,3.000,350.000,0.320,80.000
http://dx.doi.org/10.1021/acs.chemmater.5b04780,Co0.5Fe0.5Fe2O4,decanoic acid,5.000,0.300,0.000,2.319,60.000,2.545,30.000,3.212,1.000,301.590,0.300,650.000
http://dx.doi.org/10.1021/acs.chemmater.5b04780,Co0.7Fe0.3Fe2O4,decanoic acid,5.000,0.400,0.000,2.289,56.000,11.000,40.000,3.212,1.000,201.120,0.300,213.743
http://dx.doi.org/10.1021/acs.chemmater.5b04780,Co0.7Fe0.3Fe2O4,decanoic acid,5.000,0.320,0.000,2.289,61.000,5.000,42.000,3.212,1.000,251.370,0.207,378.003
http://dx.doi.org/10.1021/acs.chemmater.5b04780,Co0.7Fe0.3Fe2O4,decanoic acid,5.000,0.260,0.000,2.289,70.000,8.000,40.000,3.212,1.000,234.640,0.247,358.760
http://dx.doi.org/10.1021/acs.chemmater.5b04780,Co0.7Fe0.3Fe2O4,decanoic acid,5.000,0.260,0.000,2.289,53.000,400.000,20.000,3.212,1.000,251.330,0.100,160.000
http://dx.doi.org/10.1021/acs.chemmater.5b04780,Co0.7Fe0.3Fe2O4,decanoic acid,5.000,0.300,0.000,2.289,60.000,8.000,40.000,3.212,1.000,234.640,0.247,358.760
http://dx.doi.org/10.1021/acs.chemmater.5b04780,Co0.7Fe0.3Fe2O4,decanoic acid,5.000,0.350,0.000,2.289,63.250,10.860,43.067,3.212,1.000,301.590,0.100,600.000
http://dx.doi.org/10.1021/acs.jpcc.6b02006,Fe1Fe2O4,oleic acid- coated,1.000,0.380,1.000,2.391,88.300,0.000,0.000,6.109,1.000,600.000,0.310,670.000
10.1021/nn2048137,Fe1Fe2O4,poly- (maleic anhydride alt-1-octadecene),1.000,0.120,0.000,2.391,60.000,0.000,0.000,6.670,3.000,550.000,0.320,125.000
10.1021/nn2048137,Fe1Fe2O4,poly- (maleic anhydride alt-1-octadecene),1.000,0.120,0.000,2.391,60.000,0.000,0.000,6.670,3.000,750.000,0.320,160.000
https://doi.org/10.1021/acs.nanolett.0c02795,Fe1Fe2O4,,1.000,0.050,0.000,2.391,81.833,173.667,23.513,0.000,0.000,440.000,0.400,2213.000
https://doi.org/10.1063/1.5006515,Co0.1Fe0.9Fe2O4,,2.000,0.500,0.000,2.377,82.000,7.400,65.000,0.000,0.000,184.000,0.270,107.000